
     Program PWSCF v.6.7MaX starts on 28Sep2024 at 21:35:44 

     This program is part of the open-source Quantum ESPRESSO suite
     for quantum simulation of materials; please cite
         "P. Giannozzi et al., J. Phys.:Condens. Matter 21 395502 (2009);
         "P. Giannozzi et al., J. Phys.:Condens. Matter 29 465901 (2017);
          URL http://www.quantum-espresso.org", 
     in publications or presentations arising from this work. More details at
     http://www.quantum-espresso.org/quote

     Parallel version (MPI), running on     4 processors

     MPI processes distributed on     1 nodes
     R & G space division:  proc/nbgrp/npool/nimage =       4
     Waiting for input...
     Reading input from standard input

     Current dimensions of program PWSCF are:
     Max number of different atomic species (ntypx) = 10
     Max number of k-points (npk) =  40000
     Max angular momentum in pseudopotentials (lmaxx) =  3
     Message from routine iosys:
     wrong startingpot: use default (1)

     Subspace diagonalization in iterative solution of the eigenvalue problem:
     one sub-group per band group will be used
     scalapack distributed-memory algorithm (size of sub-group:  2*  2 procs)

     Message from routine setup:
     using ibrav=0 with symmetry is DISCOURAGED, use correct ibrav instead

     Parallelization info
     --------------------
     sticks:   dense  smooth     PW     G-vecs:    dense   smooth      PW
     Min         112     112     34                 4962     4962     795
     Max         113     113     35                 4971     4971     797
     Sum         451     451    139                19871    19871    3185



     bravais-lattice index     =            0
     lattice parameter (alat)  =      10.5468  a.u.
     unit-cell volume          =    2535.5110 (a.u.)^3
     number of atoms/cell      =           30
     number of atomic types    =            4
     number of electrons       =       294.00
     number of Kohn-Sham states=          200
     kinetic-energy cutoff     =      15.0000  Ry
     charge density cutoff     =      60.0000  Ry
     scf convergence threshold =      1.0E-03
     mixing beta               =       0.2000
     number of iterations used =            8  plain     mixing
     Exchange-correlation= SLA  PW   PSX  PSC
                           (   1   4  10   8   0   0   0)

     celldm(1)=  10.546849  celldm(2)=   0.000000  celldm(3)=   0.000000
     celldm(4)=   0.000000  celldm(5)=   0.000000  celldm(6)=   0.000000

     crystal axes: (cart. coord. in units of alat)
               a(1) = (   1.000000  -0.000000  -0.000000 )  
               a(2) = (  -0.500000   0.866025  -0.000000 )  
               a(3) = (   0.000000  -0.000000   2.495552 )  

     reciprocal axes: (cart. coord. in units 2 pi/alat)
               b(1) = (  1.000000  0.577350  0.000000 )  
               b(2) = (  0.000000  1.154701  0.000000 )  
               b(3) = (  0.000000  0.000000  0.400713 )  


     PseudoPot. # 1 for O  read from file:
     /home/aldair1809/Programas/QE/q-e-qe-7.3/pseudo/o_pbesol_v1.2.uspp.F.UPF
     MD5 check sum: 501638753501ef6325af9037351f7734
     Pseudo is Ultrasoft + core correction, Zval =  6.0
     Generated by new atomic code, or converted to UPF format
     Using radial grid of  737 points,  5 beta functions with: 
                l(1) =   0
                l(2) =   0
                l(3) =   1
                l(4) =   1
                l(5) =   2
     Q(r) pseudized with  8 coefficients,  rinner =    0.900   0.900   0.900
                                                       0.900   0.900

     PseudoPot. # 2 for Bi read from file:
     /home/aldair1809/Programas/QE/q-e-qe-7.3/pseudo/bi_pbesol_v1.uspp.F.UPF
     MD5 check sum: 588b87649a5c12ad5a0392deab1dcc00
     Pseudo is Ultrasoft + core correction, Zval = 15.0
     Generated by new atomic code, or converted to UPF format
     Using radial grid of  899 points,  6 beta functions with: 
                l(1) =   0
                l(2) =   0
                l(3) =   1
                l(4) =   1
                l(5) =   2
                l(6) =   2
     Q(r) pseudized with  6 coefficients,  rinner =    1.000   1.000   1.000
                                                       1.000   1.000

     PseudoPot. # 3 for Fe read from file:
     /home/aldair1809/Programas/QE/q-e-qe-7.3/pseudo/fe_pbesol_v1.5.uspp.F.UPF
     MD5 check sum: a3f38e9a1a818e424be8f97771a26c64
     Pseudo is Ultrasoft + core correction, Zval = 16.0
     Generated by new atomic code, or converted to UPF format
     Using radial grid of  861 points,  6 beta functions with: 
                l(1) =   0
                l(2) =   0
                l(3) =   1
                l(4) =   1
                l(5) =   2
                l(6) =   2
     Q(r) pseudized with  8 coefficients,  rinner =    1.000   1.000   1.000
                                                       1.000   1.000

     PseudoPot. # 4 for Fe read from file:
     /home/aldair1809/Programas/QE/q-e-qe-7.3/pseudo/fe_pbesol_v1.5.uspp.F.UPF
     MD5 check sum: a3f38e9a1a818e424be8f97771a26c64
     Pseudo is Ultrasoft + core correction, Zval = 16.0
     Generated by new atomic code, or converted to UPF format
     Using radial grid of  861 points,  6 beta functions with: 
                l(1) =   0
                l(2) =   0
                l(3) =   1
                l(4) =   1
                l(5) =   2
                l(6) =   2
     Q(r) pseudized with  8 coefficients,  rinner =    1.000   1.000   1.000
                                                       1.000   1.000

     atomic species   valence    mass     pseudopotential
        O              6.00    15.99940     O ( 1.00)
        Bi            15.00   208.98040     Bi( 1.00)
        Fe1           16.00    55.84500     Fe( 1.00)
        Fe2           16.00    55.84500     Fe( 1.00)

     Starting magnetic structure 
     atomic species   magnetization
        O            0.000
        Bi           0.000
        Fe1         -0.800
        Fe2          0.800

      3 Sym. Ops. (no inversion) found


                                    s                        frac. trans.

      isym =  1     identity                                     

 cryst.   s( 1) = (     1          0          0      )
                  (     0          1          0      )
                  (     0          0          1      )

 cart.    s( 1) = (  1.0000000 -0.0000000  0.0000000 )
                  (  0.0000000  1.0000000  0.0000000 )
                  (  0.0000000  0.0000000  1.0000000 )


      isym =  2     120 deg rotation - cryst. axis [0,0,1]       

 cryst.   s( 2) = (     0          1          0      )
                  (    -1         -1          0      )
                  (     0          0          1      )

 cart.    s( 2) = ( -0.5000000 -0.8660254  0.0000000 )
                  (  0.8660254 -0.5000000  0.0000000 )
                  (  0.0000000  0.0000000  1.0000000 )


      isym =  3     120 deg rotation - cryst. axis [0,0,-1]      

 cryst.   s( 3) = (    -1         -1          0      )
                  (     1          0          0      )
                  (     0          0          1      )

 cart.    s( 3) = ( -0.5000000  0.8660254  0.0000000 )
                  ( -0.8660254 -0.5000000  0.0000000 )
                  (  0.0000000  0.0000000  1.0000000 )


   Cartesian axes

     site n.     atom                  positions (alat units)
         1           Fe1 tau(   1) = (   0.0000000   0.0000000   1.9384582  )
         2           Fe1 tau(   2) = (  -0.0000005   0.5773506   2.3615556  )
         3           Fe1 tau(   3) = (   0.5000005   0.2886748   1.5200787  )
         4           Fe2 tau(   4) = (   0.5000005   0.2886748   0.2722626  )
         5           Fe2 tau(   5) = (   0.0000000   0.0000000   0.6907071  )
         6           Fe2 tau(   6) = (  -0.0000005   0.5773506   1.1137452  )
         7           Bi  tau(   7) = (   0.5000005   0.2886748   2.0843143  )
         8           Bi  tau(   8) = (  -0.0000005   0.5773506   1.6713980  )
         9           Bi  tau(   9) = (  -0.0000005   0.5773506   0.4235448  )
        10           Bi  tau(  10) = (   0.0000000   0.0000000   0.0002821  )
        11           Bi  tau(  11) = (   0.0000000   0.0000000   1.2481025  )
        12           Bi  tau(  12) = (   0.5000005   0.2886748   0.8364865  )
        13           O   tau(  13) = (  -0.3105904   0.6551932   2.2011299  )
        14           O   tau(  14) = (   0.0878817   0.2694488   2.2011299  )
        15           O   tau(  15) = (   0.2227102   0.8074080   2.2011299  )
        16           O   tau(  16) = (   0.4087504   0.5589755   1.7846473  )
        17           O   tau(  17) = (   0.3115373   0.0745013   1.7846473  )
        18           O   tau(  18) = (   0.7797108   0.2325494   1.7846473  )
        19           O   tau(  19) = (   0.6884743   0.0745026   0.5368244  )
        20           O   tau(  20) = (   0.5912412   0.5589858   0.5368244  )
        21           O   tau(  21) = (   0.2202830   0.2325379   0.5368244  )
        22           O   tau(  22) = (  -0.0823010   0.8482993   0.1166193  )
        23           O   tau(  23) = (  -0.1934983   0.3706010   0.1166193  )
        24           O   tau(  24) = (   0.2757993   0.5131505   0.1166193  )
        25           O   tau(  25) = (   0.1934855   0.3705936   1.3644430  )
        26           O   tau(  26) = (   0.0823138   0.8482919   1.3644430  )
        27           O   tau(  27) = (  -0.2757993   0.5131653   1.3644430  )
        28           O   tau(  28) = (  -0.0878870   0.2694458   0.9533686  )
        29           O   tau(  29) = (   0.3105971   0.6551893   0.9533686  )
        30           O   tau(  30) = (  -0.2227086   0.8074149   0.9533686  )

   Crystallographic axes

     site n.     atom                  positions (cryst. coord.)
         1           Fe1 tau(   1) = (  0.0000000  0.0000000  0.7767652  )
         2           Fe1 tau(   2) = (  0.3333330  0.6666670  0.9463058  )
         3           Fe1 tau(   3) = (  0.6666670  0.3333330  0.6091152  )
         4           Fe2 tau(   4) = (  0.6666670  0.3333330  0.1090991  )
         5           Fe2 tau(   5) = (  0.0000000  0.0000000  0.2767753  )
         6           Fe2 tau(   6) = (  0.3333330  0.6666670  0.4462921  )
         7           Bi  tau(   7) = (  0.6666670  0.3333330  0.8352117  )
         8           Bi  tau(   8) = (  0.3333330  0.6666670  0.6697508  )
         9           Bi  tau(   9) = (  0.3333330  0.6666670  0.1697199  )
        10           Bi  tau(  10) = (  0.0000000  0.0000000  0.0001130  )
        11           Bi  tau(  11) = (  0.0000000  0.0000000  0.5001308  )
        12           Bi  tau(  12) = (  0.6666670  0.3333330  0.3351910  )
        13           O   tau(  13) = (  0.0676856  0.7565520  0.8820212  )
        14           O   tau(  14) = (  0.2434480  0.3111326  0.8820212  )
        15           O   tau(  15) = (  0.6888674  0.9323144  0.8820212  )
        16           O   tau(  16) = (  0.7314750  0.6454493  0.7151312  )
        17           O   tau(  17) = (  0.3545507  0.0860267  0.7151312  )
        18           O   tau(  18) = (  0.9139733  0.2685250  0.7151312  )
        19           O   tau(  19) = (  0.7314884  0.0860282  0.2151125  )
        20           O   tau(  20) = (  0.9139718  0.6454612  0.2151125  )
        21           O   tau(  21) = (  0.3545388  0.2685116  0.2151125  )
        22           O   tau(  22) = (  0.4074649  0.9795317  0.0467309  )
        23           O   tau(  23) = (  0.0204683  0.4279331  0.0467309  )
        24           O   tau(  24) = (  0.5720669  0.5925351  0.0467309  )
        25           O   tau(  25) = (  0.4074478  0.4279246  0.5467499  )
        26           O   tau(  26) = (  0.5720754  0.9795232  0.5467499  )
        27           O   tau(  27) = (  0.0204768  0.5925522  0.5467499  )
        28           O   tau(  28) = (  0.0676775  0.3111292  0.3820271  )
        29           O   tau(  29) = (  0.6888708  0.7565474  0.3820271  )
        30           O   tau(  30) = (  0.2434526  0.9323225  0.3820271  )

     number of k points=     2  Gaussian smearing, width (Ry)=  0.0100
                       cart. coord. in units 2pi/alat
        k(    1) = (   0.0000000   0.0000000   0.0000000), wk =   0.2500000
        k(    2) = (   0.0000000  -0.5773503   0.0000000), wk =   0.7500000

                       cryst. coord.
        k(    1) = (   0.0000000   0.0000000   0.0000000), wk =   0.2500000
        k(    2) = (   0.0000000  -0.5000000   0.0000000), wk =   0.7500000

     Dense  grid:    19871 G-vectors     FFT dimensions: (  25,  25,  72)

     Dynamical RAM for                 wfc:       1.90 MB

     Dynamical RAM for     wfc (w. buffer):       9.48 MB

     Dynamical RAM for           str. fact:       0.30 MB

     Dynamical RAM for           local pot:       0.00 MB

     Dynamical RAM for          nlocal pot:       4.26 MB

     Dynamical RAM for                qrad:       2.49 MB

     Dynamical RAM for          rho,v,vnew:       0.97 MB

     Dynamical RAM for               rhoin:       0.32 MB

     Dynamical RAM for            rho*nmix:       2.43 MB

     Dynamical RAM for           G-vectors:       0.32 MB

     Dynamical RAM for          h,s,v(r/c):       0.46 MB

     Dynamical RAM for          <psi|beta>:       1.37 MB

     Dynamical RAM for      wfcinit/wfcrot:       4.82 MB

     Dynamical RAM for           addusdens:      15.55 MB

     Estimated static dynamical RAM per process >      21.47 MB

     Estimated max dynamical RAM per process >      37.02 MB

     Estimated total dynamical RAM >     148.09 MB

     Check: negative core charge=   -0.002668
     Generating pointlists ...
     new r_m :   0.1458 (alat units)  1.5374 (a.u.) for type    1
     new r_m :   0.1687 (alat units)  1.7788 (a.u.) for type    2
     new r_m :   0.1458 (alat units)  1.5374 (a.u.) for type    3
     new r_m :   0.1458 (alat units)  1.5374 (a.u.) for type    4

     Initial potential from superposition of free atoms

     starting charge  281.99971, renormalised to  294.00000

     negative rho (up, down):  2.523E-01 2.523E-01
     Starting wfcs are  204 randomized atomic wfcs

     total cpu time spent up to now is        4.6 secs

     Self-consistent Calculation

     iteration #  1     ecut=    15.00 Ry     beta= 0.20
     CG style diagonalization
     ethr =  1.00E-02,  avg # of iterations =  3.1

     negative rho (up, down):  1.875E-01 1.876E-01

     total cpu time spent up to now is       22.6 secs

     total energy              =   -3135.82222324 Ry
     estimated scf accuracy    <      63.60812502 Ry

     total magnetization       =     0.03 Bohr mag/cell
     absolute magnetization    =    27.17 Bohr mag/cell

     iteration #  2     ecut=    15.00 Ry     beta= 0.20
     CG style diagonalization
     ethr =  1.00E-02,  avg # of iterations =  3.2

     negative rho (up, down):  1.521E-01 1.521E-01

     total cpu time spent up to now is       38.4 secs

     total energy              =   -3136.36711340 Ry
     estimated scf accuracy    <      21.78641771 Ry

     total magnetization       =    -0.00 Bohr mag/cell
     absolute magnetization    =    30.00 Bohr mag/cell

     iteration #  3     ecut=    15.00 Ry     beta= 0.20
     CG style diagonalization
     ethr =  7.41E-03,  avg # of iterations =  3.3

     negative rho (up, down):  1.532E-01 1.532E-01

     total cpu time spent up to now is       54.5 secs

     total energy              =   -3139.16040064 Ry
     estimated scf accuracy    <      11.13266253 Ry

     total magnetization       =    -0.27 Bohr mag/cell
     absolute magnetization    =    21.54 Bohr mag/cell

     iteration #  4     ecut=    15.00 Ry     beta= 0.20
     CG style diagonalization
     ethr =  3.79E-03,  avg # of iterations =  3.0

     negative rho (up, down):  1.408E-01 1.407E-01

     total cpu time spent up to now is       69.3 secs

     total energy              =   -3143.35276619 Ry
     estimated scf accuracy    <      34.68340046 Ry

     total magnetization       =    -0.13 Bohr mag/cell
     absolute magnetization    =    14.19 Bohr mag/cell

     iteration #  5     ecut=    15.00 Ry     beta= 0.20
     CG style diagonalization
     ethr =  3.79E-03,  avg # of iterations =  3.1

     negative rho (up, down):  1.412E-01 1.412E-01

     total cpu time spent up to now is       84.3 secs

     total energy              =   -3143.47958210 Ry
     estimated scf accuracy    <      50.82620830 Ry

     total magnetization       =    -1.05 Bohr mag/cell
     absolute magnetization    =     7.47 Bohr mag/cell

     iteration #  6     ecut=    15.00 Ry     beta= 0.20
     CG style diagonalization
     ethr =  3.79E-03,  avg # of iterations =  3.0

     negative rho (up, down):  1.421E-01 1.421E-01

     total cpu time spent up to now is       99.0 secs

     total energy              =   -3142.48897383 Ry
     estimated scf accuracy    <      40.25669961 Ry

     total magnetization       =     0.25 Bohr mag/cell
     absolute magnetization    =     7.54 Bohr mag/cell

     iteration #  7     ecut=    15.00 Ry     beta= 0.20
     CG style diagonalization
     ethr =  3.79E-03,  avg # of iterations =  3.0

     negative rho (up, down):  1.430E-01 1.430E-01

     total cpu time spent up to now is      113.9 secs

     total energy              =   -3141.55561787 Ry
     estimated scf accuracy    <      27.62409624 Ry

     total magnetization       =    -0.05 Bohr mag/cell
     absolute magnetization    =     9.37 Bohr mag/cell

     iteration #  8     ecut=    15.00 Ry     beta= 0.20
     CG style diagonalization
     ethr =  3.79E-03,  avg # of iterations =  3.0

     negative rho (up, down):  1.448E-01 1.448E-01

     total cpu time spent up to now is      128.7 secs

     total energy              =   -3140.25755997 Ry
     estimated scf accuracy    <      18.00757564 Ry

     total magnetization       =    -0.64 Bohr mag/cell
     absolute magnetization    =    11.74 Bohr mag/cell

     iteration #  9     ecut=    15.00 Ry     beta= 0.20
     CG style diagonalization
     ethr =  3.79E-03,  avg # of iterations =  3.0

     negative rho (up, down):  1.461E-01 1.461E-01

     total cpu time spent up to now is      143.5 secs

     total energy              =   -3140.79690417 Ry
     estimated scf accuracy    <       1.61091628 Ry

     total magnetization       =    -0.04 Bohr mag/cell
     absolute magnetization    =    18.27 Bohr mag/cell

     iteration # 10     ecut=    15.00 Ry     beta= 0.20
     CG style diagonalization
     ethr =  5.48E-04,  avg # of iterations =  3.1

     negative rho (up, down):  1.452E-01 1.453E-01

     total cpu time spent up to now is      158.7 secs

     total energy              =   -3140.95405664 Ry
     estimated scf accuracy    <       0.45798287 Ry

     total magnetization       =    -0.19 Bohr mag/cell
     absolute magnetization    =    19.90 Bohr mag/cell

     iteration # 11     ecut=    15.00 Ry     beta= 0.20
     CG style diagonalization
     ethr =  1.56E-04,  avg # of iterations =  3.2

     negative rho (up, down):  1.466E-01 1.468E-01

     total cpu time spent up to now is      174.5 secs

     total energy              =   -3140.90398432 Ry
     estimated scf accuracy    <       1.74737382 Ry

     total magnetization       =    -0.22 Bohr mag/cell
     absolute magnetization    =    15.43 Bohr mag/cell

     iteration # 12     ecut=    15.00 Ry     beta= 0.20
     CG style diagonalization
     ethr =  1.56E-04,  avg # of iterations =  3.1

     negative rho (up, down):  1.468E-01 1.470E-01

     total cpu time spent up to now is      189.7 secs

     total energy              =   -3141.07112680 Ry
     estimated scf accuracy    <       0.17271720 Ry

     total magnetization       =    -0.13 Bohr mag/cell
     absolute magnetization    =    17.20 Bohr mag/cell

     iteration # 13     ecut=    15.00 Ry     beta= 0.20
     CG style diagonalization
     ethr =  5.87E-05,  avg # of iterations =  3.1

     negative rho (up, down):  1.470E-01 1.472E-01

     total cpu time spent up to now is      205.5 secs

     total energy              =   -3141.09883788 Ry
     estimated scf accuracy    <       0.13127165 Ry

     total magnetization       =     0.04 Bohr mag/cell
     absolute magnetization    =    16.14 Bohr mag/cell

     iteration # 14     ecut=    15.00 Ry     beta= 0.20
     CG style diagonalization
     ethr =  4.47E-05,  avg # of iterations =  3.0

     negative rho (up, down):  1.469E-01 1.472E-01

     total cpu time spent up to now is      220.5 secs

     total energy              =   -3141.12163989 Ry
     estimated scf accuracy    <       0.03987042 Ry

     total magnetization       =    -0.13 Bohr mag/cell
     absolute magnetization    =    15.42 Bohr mag/cell

     iteration # 15     ecut=    15.00 Ry     beta= 0.20
     CG style diagonalization
     c_bands:  2 eigenvalues not converged
     ethr =  1.36E-05,  avg # of iterations =  3.1

     negative rho (up, down):  1.468E-01 1.471E-01

     total cpu time spent up to now is      235.9 secs

     total energy              =   -3141.13593469 Ry
     estimated scf accuracy    <       0.03048124 Ry

     total magnetization       =    -0.07 Bohr mag/cell
     absolute magnetization    =    14.49 Bohr mag/cell

     iteration # 16     ecut=    15.00 Ry     beta= 0.20
     CG style diagonalization
     ethr =  1.04E-05,  avg # of iterations =  3.0

     negative rho (up, down):  1.469E-01 1.472E-01

     total cpu time spent up to now is      250.8 secs

     total energy              =   -3141.14069104 Ry
     estimated scf accuracy    <       0.22745599 Ry

     total magnetization       =     0.12 Bohr mag/cell
     absolute magnetization    =    13.69 Bohr mag/cell

     iteration # 17     ecut=    15.00 Ry     beta= 0.20
     CG style diagonalization
     c_bands:  1 eigenvalues not converged
     ethr =  1.04E-05,  avg # of iterations =  3.0

     negative rho (up, down):  1.468E-01 1.472E-01

     total cpu time spent up to now is      265.7 secs

     total energy              =   -3141.15138414 Ry
     estimated scf accuracy    <       0.02421079 Ry

     total magnetization       =    -0.13 Bohr mag/cell
     absolute magnetization    =    13.20 Bohr mag/cell

     iteration # 18     ecut=    15.00 Ry     beta= 0.20
     CG style diagonalization
     ethr =  8.23E-06,  avg # of iterations =  3.0

     negative rho (up, down):  1.468E-01 1.471E-01

     total cpu time spent up to now is      280.5 secs

     total energy              =   -3141.15718107 Ry
     estimated scf accuracy    <       0.03020485 Ry

     total magnetization       =     0.04 Bohr mag/cell
     absolute magnetization    =    12.75 Bohr mag/cell

     iteration # 19     ecut=    15.00 Ry     beta= 0.20
     CG style diagonalization
     c_bands:  1 eigenvalues not converged
     ethr =  8.23E-06,  avg # of iterations =  3.0

     negative rho (up, down):  1.468E-01 1.471E-01

     total cpu time spent up to now is      295.4 secs

     total energy              =   -3141.16203503 Ry
     estimated scf accuracy    <       0.00851610 Ry

     total magnetization       =    -0.06 Bohr mag/cell
     absolute magnetization    =    12.29 Bohr mag/cell

     iteration # 20     ecut=    15.00 Ry     beta= 0.20
     CG style diagonalization
     c_bands:  1 eigenvalues not converged
     ethr =  2.90E-06,  avg # of iterations =  3.1

     negative rho (up, down):  1.469E-01 1.472E-01

     total cpu time spent up to now is      310.8 secs

     total energy              =   -3141.16539664 Ry
     estimated scf accuracy    <       0.01934139 Ry

     total magnetization       =    -0.01 Bohr mag/cell
     absolute magnetization    =    11.85 Bohr mag/cell

     iteration # 21     ecut=    15.00 Ry     beta= 0.20
     CG style diagonalization
     c_bands:  1 eigenvalues not converged
     ethr =  2.90E-06,  avg # of iterations =  3.1

     negative rho (up, down):  1.470E-01 1.473E-01

     total cpu time spent up to now is      325.9 secs

     total energy              =   -3141.16882905 Ry
     estimated scf accuracy    <       0.00509148 Ry

     total magnetization       =    -0.02 Bohr mag/cell
     absolute magnetization    =    11.52 Bohr mag/cell

     iteration # 22     ecut=    15.00 Ry     beta= 0.20
     CG style diagonalization
     ethr =  1.73E-06,  avg # of iterations =  3.0

     negative rho (up, down):  1.472E-01 1.475E-01

     total cpu time spent up to now is      340.8 secs

     total energy              =   -3141.17120949 Ry
     estimated scf accuracy    <       0.00444811 Ry

     total magnetization       =    -0.01 Bohr mag/cell
     absolute magnetization    =    11.15 Bohr mag/cell

     iteration # 23     ecut=    15.00 Ry     beta= 0.20
     CG style diagonalization
     ethr =  1.51E-06,  avg # of iterations =  3.0

     negative rho (up, down):  1.474E-01 1.476E-01

     total cpu time spent up to now is      355.6 secs

     total energy              =   -3141.17277914 Ry
     estimated scf accuracy    <       0.00329674 Ry

     total magnetization       =    -0.01 Bohr mag/cell
     absolute magnetization    =    10.89 Bohr mag/cell

     iteration # 24     ecut=    15.00 Ry     beta= 0.20
     CG style diagonalization
     ethr =  1.12E-06,  avg # of iterations =  3.0

     negative rho (up, down):  1.477E-01 1.480E-01

     total cpu time spent up to now is      370.3 secs

     total energy              =   -3141.17411938 Ry
     estimated scf accuracy    <       0.00201163 Ry

     total magnetization       =     0.00 Bohr mag/cell
     absolute magnetization    =    10.67 Bohr mag/cell

     iteration # 25     ecut=    15.00 Ry     beta= 0.20
     CG style diagonalization
     ethr =  6.84E-07,  avg # of iterations =  3.0

     negative rho (up, down):  1.481E-01 1.483E-01

     total cpu time spent up to now is      385.1 secs

     total energy              =   -3141.17512692 Ry
     estimated scf accuracy    <       0.00134534 Ry

     total magnetization       =     0.00 Bohr mag/cell
     absolute magnetization    =    10.43 Bohr mag/cell

     iteration # 26     ecut=    15.00 Ry     beta= 0.20
     CG style diagonalization
     c_bands:  1 eigenvalues not converged
     ethr =  4.58E-07,  avg # of iterations =  3.1

     negative rho (up, down):  1.481E-01 1.483E-01

     total cpu time spent up to now is      400.4 secs

     total energy              =   -3141.17586178 Ry
     estimated scf accuracy    <       0.00130820 Ry

     total magnetization       =    -0.00 Bohr mag/cell
     absolute magnetization    =    10.13 Bohr mag/cell

     iteration # 27     ecut=    15.00 Ry     beta= 0.20
     CG style diagonalization
     ethr =  4.45E-07,  avg # of iterations =  3.0

     negative rho (up, down):  1.481E-01 1.482E-01

     Magnetic moment per site:
     atom:    1    charge:   13.3867    magn:   -1.0293    constr:    0.0000
     atom:    2    charge:   13.3665    magn:   -1.1093    constr:    0.0000
     atom:    3    charge:   13.3592    magn:   -1.5138    constr:    0.0000
     atom:    4    charge:   13.3596    magn:    1.5114    constr:    0.0000
     atom:    5    charge:   13.3677    magn:    1.0317    constr:    0.0000
     atom:    6    charge:   13.3538    magn:    1.1184    constr:    0.0000
     atom:    7    charge:   10.4871    magn:   -0.0079    constr:    0.0000
     atom:    8    charge:   10.4886    magn:   -0.0043    constr:    0.0000
     atom:    9    charge:   10.4883    magn:    0.0041    constr:    0.0000
     atom:   10    charge:   10.4600    magn:   -0.0031    constr:    0.0000
     atom:   11    charge:   10.4599    magn:    0.0029    constr:    0.0000
     atom:   12    charge:   10.4869    magn:    0.0078    constr:    0.0000
     atom:   13    charge:    5.3416    magn:   -0.0086    constr:    0.0000
     atom:   14    charge:    5.3416    magn:   -0.0086    constr:    0.0000
     atom:   15    charge:    5.3416    magn:   -0.0086    constr:    0.0000
     atom:   16    charge:    5.3388    magn:   -0.0255    constr:    0.0000
     atom:   17    charge:    5.3388    magn:   -0.0255    constr:    0.0000
     atom:   18    charge:    5.3388    magn:   -0.0255    constr:    0.0000
     atom:   19    charge:    5.3371    magn:    0.0253    constr:    0.0000
     atom:   20    charge:    5.3371    magn:    0.0253    constr:    0.0000
     atom:   21    charge:    5.3371    magn:    0.0253    constr:    0.0000
     atom:   22    charge:    5.3287    magn:    0.0219    constr:    0.0000
     atom:   23    charge:    5.3287    magn:    0.0219    constr:    0.0000
     atom:   24    charge:    5.3287    magn:    0.0219    constr:    0.0000
     atom:   25    charge:    5.3289    magn:   -0.0228    constr:    0.0000
     atom:   26    charge:    5.3289    magn:   -0.0228    constr:    0.0000
     atom:   27    charge:    5.3289    magn:   -0.0228    constr:    0.0000
     atom:   28    charge:    5.3402    magn:    0.0086    constr:    0.0000
     atom:   29    charge:    5.3402    magn:    0.0086    constr:    0.0000
     atom:   30    charge:    5.3402    magn:    0.0086    constr:    0.0000

     total cpu time spent up to now is      415.2 secs

     End of self-consistent calculation

 ------ SPIN UP ------------


          k = 0.0000 0.0000 0.0000 (  2529 PWs)   bands (ev):

   -86.8834 -86.5801 -86.5515 -85.3534 -85.2908 -85.0247 -48.3793 -48.3793
   -48.1550 -47.9045 -47.9045 -47.6931 -47.6523 -47.6523 -47.4951 -46.7321
   -46.7321 -46.6160 -46.6160 -46.3649 -46.2439 -46.2439 -45.9518 -45.7885
   -11.2296 -11.2296 -11.1613 -11.1613 -11.1343 -11.1343 -11.0469 -11.0321
   -11.0252 -11.0252 -11.0190 -11.0190 -10.9995 -10.9994 -10.9801 -10.9482
   -10.9096 -10.9096 -10.9050 -10.9050 -10.9023 -10.8948 -10.8948 -10.8765
   -10.8743 -10.8743 -10.8707 -10.8707 -10.8605 -10.8605  -9.7519  -9.4342
    -9.4142  -8.7391  -8.7034  -8.3609  -8.3450  -8.3449  -8.2626  -8.2625
    -8.1928  -8.1928  -8.0280  -8.0279  -7.9664  -7.9664  -7.9049  -7.9049
     0.6766   0.8904   0.9796   1.6286   1.7481   2.4035   4.7529   4.7529
     4.8290   5.3837   5.5137   5.5663   5.5663   5.5865   5.5866   5.8841
     5.9229   5.9229   6.0523   6.0524   6.1692   6.1834   6.1835   6.2436
     6.3002   6.4055   6.4056   6.6072   6.6073   6.8459   6.8459   7.3375
     7.3376   7.3896   7.5050   7.6583   7.6583   7.7013   7.7013   8.0368
     8.1781   8.4236   8.4237   8.4409   8.4987   8.4988   8.5599   8.5599
     8.7055   8.9511   8.9512   9.1749   9.2137   9.2137   9.2166   9.2502
     9.2503   9.4908   9.4908   9.7563   9.8121   9.8121  10.1247  10.1247
    10.1773  10.1935  10.2462  10.2462  10.4849  10.5902  10.5902  10.8131
    10.9093  10.9116  10.9116  11.1462  11.1462  11.6942  12.0216  12.1184
    12.1973  12.1973  12.5361  12.5362  13.4492  13.4492  14.0922  14.0923
    14.4244  14.4244  15.0520  15.1326  15.2461  15.2751  16.2793  16.2793
    16.4955  16.4955  16.5792  16.5792  16.6728  17.0136  17.2625  17.2625
    17.3580  17.3580  17.6103  17.6103  17.9807  19.7163  19.8741  19.9595
    20.7177  20.7177  21.2076  21.2724  21.9393  21.9394  22.0431  22.0431
    22.1104  22.1105  23.1082  23.3587  23.3587  23.4882  23.4883  23.7774

     occupation numbers 
     1.0000   1.0000   1.0000   1.0000   1.0000   1.0000   1.0000   1.0000
     1.0000   1.0000   1.0000   1.0000   1.0000   1.0000   1.0000   1.0000
     1.0000   1.0000   1.0000   1.0000   1.0000   1.0000   1.0000   1.0000
     1.0000   1.0000   1.0000   1.0000   1.0000   1.0000   1.0000   1.0000
     1.0000   1.0000   1.0000   1.0000   1.0000   1.0000   1.0000   1.0000
     1.0000   1.0000   1.0000   1.0000   1.0000   1.0000   1.0000   1.0000
     1.0000   1.0000   1.0000   1.0000   1.0000   1.0000   1.0000   1.0000
     1.0000   1.0000   1.0000   1.0000   1.0000   1.0000   1.0000   1.0000
     1.0000   1.0000   1.0000   1.0000   1.0000   1.0000   1.0000   1.0000
     1.0000   1.0000   1.0000   1.0000   1.0000   1.0000   1.0000   1.0000
     1.0000   1.0000   1.0000   1.0000   1.0000   1.0000   1.0000   1.0000
     1.0000   1.0000   1.0000   1.0000   1.0000   1.0000   1.0000   1.0000
     1.0000   1.0000   1.0000   1.0000   1.0000   1.0000   1.0000   1.0000
     1.0000   1.0000   1.0000   1.0000   1.0000   1.0000   1.0000   1.0000
     1.0000   1.0000   1.0000   1.0000   1.0000   1.0000   1.0000   1.0000
     1.0000   1.0000   1.0000   1.0000   1.0000   1.0000   1.0000   1.0000
     1.0000   1.0000   1.0000   1.0000   1.0000   1.0000   1.0000   1.0000
     1.0000   1.0000   1.0000   1.0000   1.0000   1.0000   1.0000   1.0000
     1.0000   1.0000   1.0000   1.0000   1.0000   0.6890   0.0018   0.0000
     0.0000   0.0000   0.0000   0.0000   0.0000   0.0000   0.0000   0.0000
     0.0000   0.0000   0.0000   0.0000   0.0000   0.0000   0.0000   0.0000
     0.0000   0.0000   0.0000   0.0000   0.0000   0.0000   0.0000   0.0000
     0.0000   0.0000   0.0000   0.0000   0.0000   0.0000   0.0000   0.0000
     0.0000   0.0000   0.0000   0.0000   0.0000   0.0000   0.0000   0.0000
     0.0000   0.0000   0.0000   0.0000   0.0000   0.0000   0.0000   0.0000

          k = 0.0000-0.5774 0.0000 (  2466 PWs)   bands (ev):

   -86.6935 -86.4673 -86.3573 -85.2123 -85.1281 -84.8879 -47.9433 -47.8370
   -47.7711 -47.6019 -47.5137 -47.2206 -47.0440 -47.0184 -46.8839 -46.5583
   -46.1639 -46.1177 -46.0837 -45.9569 -45.8032 -45.6544 -45.6142 -45.4403
   -11.2081 -11.1647 -11.1396 -11.1156 -11.1109 -11.1043 -11.0826 -11.0735
   -11.0260 -11.0234 -11.0130 -11.0083 -10.9905 -10.9706 -10.9653 -10.9512
   -10.9472 -10.9237 -10.9201 -10.9147 -10.9081 -10.9002 -10.8920 -10.8866
   -10.8839 -10.8819 -10.8764 -10.8734 -10.8684 -10.8567  -9.1641  -9.1436
    -9.0694  -8.9089  -8.8983  -8.5913  -8.5520  -8.4567  -8.3619  -8.3082
    -8.2281  -8.2019  -8.0910  -8.0657  -8.0360  -7.9949  -7.9788  -7.8766
     0.8394   1.0030   1.0420   1.2886   1.3436   1.4648   5.1581   5.3813
     5.4690   5.5584   5.5635   5.7266   5.8658   5.8925   5.9196   5.9603
     6.1315   6.1730   6.1995   6.5099   6.5310   6.5845   6.7016   6.8114
     7.0048   7.1319   7.1770   7.1953   7.2663   7.3287   7.3563   7.4106
     7.4839   7.5356   7.5945   7.7656   7.9461   8.0904   8.1371   8.2161
     8.2659   8.3603   8.4183   8.5939   8.6254   8.6738   8.7329   8.8124
     8.8700   8.9044   8.9163   9.0817   9.1615   9.1950   9.2091   9.2334
     9.5936   9.7230   9.7914  10.1444  10.1785  10.2884  10.5569  10.6654
    10.7154  10.7590  10.9084  11.0255  11.1648  11.2686  11.4279  11.4604
    11.5999  11.6705  11.7651  11.9920  12.0185  12.1233  12.2130  12.3533
    12.3831  12.4726  12.6188  12.8317  13.0922  13.3560  13.5118  13.8566
    14.2651  14.6534  15.0252  15.1314  15.1864  15.3667  15.4394  15.5842
    15.6331  15.7025  16.1476  16.8002  16.8176  16.8581  16.9811  17.1107
    17.1958  17.2284  17.2655  17.3011  20.5494  20.6892  20.9189  21.0492
    21.1259  21.5807  22.0342  22.2265  22.3332  22.4694  22.5152  22.5482
    22.6134  22.6682  23.2845  23.3380  23.3734  23.3974  23.6183  23.7213

     occupation numbers 
     1.0000   1.0000   1.0000   1.0000   1.0000   1.0000   1.0000   1.0000
     1.0000   1.0000   1.0000   1.0000   1.0000   1.0000   1.0000   1.0000
     1.0000   1.0000   1.0000   1.0000   1.0000   1.0000   1.0000   1.0000
     1.0000   1.0000   1.0000   1.0000   1.0000   1.0000   1.0000   1.0000
     1.0000   1.0000   1.0000   1.0000   1.0000   1.0000   1.0000   1.0000
     1.0000   1.0000   1.0000   1.0000   1.0000   1.0000   1.0000   1.0000
     1.0000   1.0000   1.0000   1.0000   1.0000   1.0000   1.0000   1.0000
     1.0000   1.0000   1.0000   1.0000   1.0000   1.0000   1.0000   1.0000
     1.0000   1.0000   1.0000   1.0000   1.0000   1.0000   1.0000   1.0000
     1.0000   1.0000   1.0000   1.0000   1.0000   1.0000   1.0000   1.0000
     1.0000   1.0000   1.0000   1.0000   1.0000   1.0000   1.0000   1.0000
     1.0000   1.0000   1.0000   1.0000   1.0000   1.0000   1.0000   1.0000
     1.0000   1.0000   1.0000   1.0000   1.0000   1.0000   1.0000   1.0000
     1.0000   1.0000   1.0000   1.0000   1.0000   1.0000   1.0000   1.0000
     1.0000   1.0000   1.0000   1.0000   1.0000   1.0000   1.0000   1.0000
     1.0000   1.0000   1.0000   1.0000   1.0000   1.0000   1.0000   1.0000
     1.0000   1.0000   1.0000   1.0000   1.0000   1.0000   1.0000   1.0000
     1.0000   1.0000   1.0000   1.0000   1.0000   1.0000   0.9994   0.9983
     0.9296   0.7700   0.4034   0.0046   0.0020   0.0000   0.0000   0.0000
     0.0000   0.0000   0.0000   0.0000   0.0000   0.0000   0.0000   0.0000
     0.0000   0.0000   0.0000   0.0000   0.0000   0.0000   0.0000   0.0000
     0.0000   0.0000   0.0000   0.0000   0.0000   0.0000   0.0000   0.0000
     0.0000   0.0000   0.0000   0.0000   0.0000   0.0000   0.0000   0.0000
     0.0000   0.0000   0.0000   0.0000   0.0000   0.0000   0.0000   0.0000
     0.0000   0.0000   0.0000   0.0000   0.0000   0.0000   0.0000   0.0000

 ------ SPIN DOWN ----------


          k = 0.0000 0.0000 0.0000 (  2529 PWs)   bands (ev):

   -86.8856 -86.5903 -86.5591 -85.3425 -85.2779 -85.0228 -48.3832 -48.3831
   -48.1537 -47.9183 -47.9183 -47.7048 -47.6560 -47.6560 -47.4930 -46.7254
   -46.7253 -46.6032 -46.6032 -46.3584 -46.2371 -46.2371 -45.9416 -45.7904
   -11.2302 -11.2302 -11.1609 -11.1609 -11.1346 -11.1346 -11.0499 -11.0293
   -11.0263 -11.0263 -11.0187 -11.0187 -10.9987 -10.9987 -10.9805 -10.9471
   -10.9144 -10.9144 -10.9024 -10.9020 -10.9020 -10.8944 -10.8944 -10.8760
   -10.8754 -10.8754 -10.8697 -10.8697 -10.8597 -10.8597  -9.7527  -9.4345
    -9.4135  -8.7395  -8.7031  -8.3604  -8.3472  -8.3471  -8.2616  -8.2615
    -8.1931  -8.1931  -8.0280  -8.0280  -7.9675  -7.9675  -7.9026  -7.9026
     0.6758   0.8910   0.9792   1.6284   1.7480   2.4034   4.7517   4.7517
     4.8281   5.3836   5.5143   5.5655   5.5655   5.5864   5.5865   5.8824
     5.9196   5.9196   6.0523   6.0524   6.1708   6.1854   6.1855   6.2461
     6.3008   6.4025   6.4025   6.6071   6.6071   6.8477   6.8478   7.3349
     7.3349   7.3903   7.5048   7.6623   7.6623   7.7031   7.7031   8.0368
     8.1801   8.4219   8.4220   8.4491   8.4992   8.4993   8.5574   8.5574
     8.7044   8.9468   8.9468   9.1837   9.2139   9.2139   9.2139   9.2511
     9.2512   9.4860   9.4860   9.7612   9.8055   9.8055  10.1159  10.1159
    10.1798  10.2033  10.2439  10.2439  10.4852  10.5936  10.5936  10.8107
    10.9114  10.9177  10.9177  11.1391  11.1391  11.7104  12.0441  12.1296
    12.1952  12.1952  12.5345  12.5345  13.4454  13.4454  14.0965  14.0965
    14.4266  14.4266  15.0502  15.1323  15.2454  15.2751  16.2788  16.2788
    16.4957  16.4957  16.5788  16.5788  16.6727  17.0128  17.2622  17.2622
    17.3575  17.3575  17.6106  17.6106  17.9803  19.7147  19.8745  19.9603
    20.7171  20.7171  21.2077  21.2727  21.9389  21.9390  22.0428  22.0428
    22.1093  22.1094  23.1065  23.3582  23.3583  23.4875  23.4879  23.7764

     occupation numbers 
     1.0000   1.0000   1.0000   1.0000   1.0000   1.0000   1.0000   1.0000
     1.0000   1.0000   1.0000   1.0000   1.0000   1.0000   1.0000   1.0000
     1.0000   1.0000   1.0000   1.0000   1.0000   1.0000   1.0000   1.0000
     1.0000   1.0000   1.0000   1.0000   1.0000   1.0000   1.0000   1.0000
     1.0000   1.0000   1.0000   1.0000   1.0000   1.0000   1.0000   1.0000
     1.0000   1.0000   1.0000   1.0000   1.0000   1.0000   1.0000   1.0000
     1.0000   1.0000   1.0000   1.0000   1.0000   1.0000   1.0000   1.0000
     1.0000   1.0000   1.0000   1.0000   1.0000   1.0000   1.0000   1.0000
     1.0000   1.0000   1.0000   1.0000   1.0000   1.0000   1.0000   1.0000
     1.0000   1.0000   1.0000   1.0000   1.0000   1.0000   1.0000   1.0000
     1.0000   1.0000   1.0000   1.0000   1.0000   1.0000   1.0000   1.0000
     1.0000   1.0000   1.0000   1.0000   1.0000   1.0000   1.0000   1.0000
     1.0000   1.0000   1.0000   1.0000   1.0000   1.0000   1.0000   1.0000
     1.0000   1.0000   1.0000   1.0000   1.0000   1.0000   1.0000   1.0000
     1.0000   1.0000   1.0000   1.0000   1.0000   1.0000   1.0000   1.0000
     1.0000   1.0000   1.0000   1.0000   1.0000   1.0000   1.0000   1.0000
     1.0000   1.0000   1.0000   1.0000   1.0000   1.0000   1.0000   1.0000
     1.0000   1.0000   1.0000   1.0000   1.0000   1.0000   1.0000   1.0000
     1.0000   1.0000   1.0000   1.0000   1.0000   0.6273   0.0008   0.0000
     0.0000   0.0000   0.0000   0.0000   0.0000   0.0000   0.0000   0.0000
     0.0000   0.0000   0.0000   0.0000   0.0000   0.0000   0.0000   0.0000
     0.0000   0.0000   0.0000   0.0000   0.0000   0.0000   0.0000   0.0000
     0.0000   0.0000   0.0000   0.0000   0.0000   0.0000   0.0000   0.0000
     0.0000   0.0000   0.0000   0.0000   0.0000   0.0000   0.0000   0.0000
     0.0000   0.0000   0.0000   0.0000   0.0000   0.0000   0.0000   0.0000

          k = 0.0000-0.5774 0.0000 (  2466 PWs)   bands (ev):

   -86.6961 -86.4733 -86.3690 -85.1996 -85.1165 -84.8861 -47.9514 -47.8336
   -47.7758 -47.6137 -47.5152 -47.2266 -47.0495 -47.0256 -46.8964 -46.5499
   -46.1527 -46.1091 -46.0757 -45.9526 -45.7934 -45.6491 -45.6056 -45.4340
   -11.2090 -11.1640 -11.1399 -11.1190 -11.1081 -11.1052 -11.0816 -11.0738
   -11.0267 -11.0229 -11.0130 -11.0098 -10.9891 -10.9717 -10.9652 -10.9517
   -10.9475 -10.9249 -10.9230 -10.9108 -10.9087 -10.8985 -10.8932 -10.8878
   -10.8830 -10.8800 -10.8769 -10.8741 -10.8670 -10.8562  -9.1651  -9.1457
    -9.0676  -8.9085  -8.8985  -8.5908  -8.5527  -8.4579  -8.3617  -8.3081
    -8.2283  -8.2028  -8.0920  -8.0658  -8.0346  -7.9951  -7.9779  -7.8753
     0.8384   1.0034   1.0415   1.2883   1.3431   1.4653   5.1559   5.3802
     5.4662   5.5567   5.5676   5.7284   5.8637   5.8909   5.9193   5.9602
     6.1309   6.1750   6.2006   6.5078   6.5310   6.5842   6.7006   6.8133
     7.0053   7.1303   7.1756   7.1967   7.2641   7.3273   7.3553   7.4102
     7.4855   7.5372   7.5943   7.7657   7.9452   8.0892   8.1371   8.2158
     8.2663   8.3601   8.4182   8.5927   8.6210   8.6748   8.7315   8.8112
     8.8730   8.9061   8.9188   9.0795   9.1631   9.1960   9.2070   9.2296
     9.5954   9.7235   9.7950  10.1383  10.1776  10.2907  10.5550  10.6575
    10.7192  10.7546  10.9062  11.0247  11.1633  11.2643  11.4262  11.4634
    11.6034  11.6645  11.7656  11.9877  12.0215  12.1212  12.2162  12.3621
    12.3965  12.4709  12.6246  12.8395  13.0999  13.3598  13.5187  13.8547
    14.2679  14.6537  15.0252  15.1297  15.1878  15.3665  15.4398  15.5836
    15.6327  15.7021  16.1500  16.7973  16.8195  16.8583  16.9805  17.1103
    17.1936  17.2295  17.2629  17.3037  20.5457  20.6871  20.9184  21.0518
    21.1284  21.5813  22.0336  22.2257  22.3325  22.4693  22.5140  22.5468
    22.6128  22.6688  23.2824  23.3378  23.3735  23.3964  23.6171  23.7197

     occupation numbers 
     1.0000   1.0000   1.0000   1.0000   1.0000   1.0000   1.0000   1.0000
     1.0000   1.0000   1.0000   1.0000   1.0000   1.0000   1.0000   1.0000
     1.0000   1.0000   1.0000   1.0000   1.0000   1.0000   1.0000   1.0000
     1.0000   1.0000   1.0000   1.0000   1.0000   1.0000   1.0000   1.0000
     1.0000   1.0000   1.0000   1.0000   1.0000   1.0000   1.0000   1.0000
     1.0000   1.0000   1.0000   1.0000   1.0000   1.0000   1.0000   1.0000
     1.0000   1.0000   1.0000   1.0000   1.0000   1.0000   1.0000   1.0000
     1.0000   1.0000   1.0000   1.0000   1.0000   1.0000   1.0000   1.0000
     1.0000   1.0000   1.0000   1.0000   1.0000   1.0000   1.0000   1.0000
     1.0000   1.0000   1.0000   1.0000   1.0000   1.0000   1.0000   1.0000
     1.0000   1.0000   1.0000   1.0000   1.0000   1.0000   1.0000   1.0000
     1.0000   1.0000   1.0000   1.0000   1.0000   1.0000   1.0000   1.0000
     1.0000   1.0000   1.0000   1.0000   1.0000   1.0000   1.0000   1.0000
     1.0000   1.0000   1.0000   1.0000   1.0000   1.0000   1.0000   1.0000
     1.0000   1.0000   1.0000   1.0000   1.0000   1.0000   1.0000   1.0000
     1.0000   1.0000   1.0000   1.0000   1.0000   1.0000   1.0000   1.0000
     1.0000   1.0000   1.0000   1.0000   1.0000   1.0000   1.0000   1.0000
     1.0000   1.0000   1.0000   1.0000   1.0000   1.0000   0.9995   0.9981
     0.9246   0.7887   0.4015   0.0053   0.0018   0.0000   0.0000   0.0000
     0.0000   0.0000   0.0000   0.0000   0.0000   0.0000   0.0000   0.0000
     0.0000   0.0000   0.0000   0.0000   0.0000   0.0000   0.0000   0.0000
     0.0000   0.0000   0.0000   0.0000   0.0000   0.0000   0.0000   0.0000
     0.0000   0.0000   0.0000   0.0000   0.0000   0.0000   0.0000   0.0000
     0.0000   0.0000   0.0000   0.0000   0.0000   0.0000   0.0000   0.0000
     0.0000   0.0000   0.0000   0.0000   0.0000   0.0000   0.0000   0.0000

     the Fermi energy is    11.7416 ev

!    total energy              =   -3141.17566822 Ry
     estimated scf accuracy    <       0.00084887 Ry
     smearing contrib. (-TS)   =      -0.01032642 Ry
     internal energy E=F+TS    =   -3141.16534180 Ry

     The total energy is F=E-TS. E is the sum of the following terms:
     one-electron contribution =   -1206.12526962 Ry
     hartree contribution      =     766.88541470 Ry
     xc contribution           =    -674.27635400 Ry
     ewald contribution        =   -2027.64913289 Ry

     total magnetization       =     0.01 Bohr mag/cell
     absolute magnetization    =    10.10 Bohr mag/cell

     convergence has been achieved in  27 iterations

     Writing output data file /home/aldair1809/Documentos/QE/4BFO/UHUBBARD/temp/pseudo_o_pbesol_v1.2.uspp.F.UPF_ecutwfc_15.in/bifeo3-scf.save/

     init_run     :      4.13s CPU      4.22s WALL (       1 calls)
     electrons    :    400.84s CPU    410.62s WALL (       1 calls)

     Called by init_run:
     wfcinit      :      3.59s CPU      3.63s WALL (       1 calls)
     wfcinit:atom :      0.01s CPU      0.01s WALL (       4 calls)
     wfcinit:wfcr :      3.53s CPU      3.57s WALL (       4 calls)
     potinit      :      0.08s CPU      0.09s WALL (       1 calls)
     hinit0       :      0.30s CPU      0.30s WALL (       1 calls)

     Called by electrons:
     c_bands      :    366.31s CPU    375.38s WALL (      27 calls)
     sum_band     :     29.50s CPU     30.16s WALL (      27 calls)
     v_of_rho     :      0.50s CPU      0.52s WALL (      28 calls)
     v_h          :      0.01s CPU      0.01s WALL (      28 calls)
     v_xc         :      0.49s CPU      0.51s WALL (      28 calls)
     newd         :      4.55s CPU      4.59s WALL (      28 calls)
     mix_rho      :      0.13s CPU      0.13s WALL (      27 calls)

     Called by c_bands:
     init_us_2    :      0.63s CPU      0.64s WALL (     220 calls)
     ccgdiagg     :    274.79s CPU    282.66s WALL (     108 calls)
     wfcrot       :     94.47s CPU     95.70s WALL (     108 calls)

     Called by sum_band:
     sum_band:wei :      0.02s CPU      0.02s WALL (      27 calls)
     sum_band:loo :     24.06s CPU     24.71s WALL (      27 calls)
     sum_band:buf :      0.11s CPU      0.11s WALL (     108 calls)
     sum_band:ini :      0.30s CPU      0.31s WALL (     108 calls)
     sum_band:cal :     19.16s CPU     19.27s WALL (     108 calls)
     sum_band:bec :      0.56s CPU      0.56s WALL (     108 calls)
     addusdens    :      5.12s CPU      5.14s WALL (      27 calls)
     addusd:skk   :      0.02s CPU      0.02s WALL (     108 calls)
     addusd:dgemm :      2.33s CPU      2.34s WALL (     216 calls)
     addusd:qvan2 :      2.70s CPU      2.71s WALL (     216 calls)

     Called by *cgdiagg:
     h_psi        :    156.69s CPU    163.05s WALL (   45497 calls)
     s_psi        :    104.83s CPU    105.86s WALL (   90886 calls)

     Called by h_psi:
     h_psi:calbec :     64.18s CPU     67.89s WALL (   45497 calls)
     vloc_psi     :     28.42s CPU     30.58s WALL (   45497 calls)
     add_vuspsi   :     63.25s CPU     63.80s WALL (   45497 calls)
     hs_1psi      :    153.28s CPU    159.02s WALL (   45389 calls)
     s_1psi       :     86.41s CPU     88.18s WALL (   45389 calls)

     General routines
     calbec       :    126.11s CPU    131.50s WALL (   90994 calls)
     fft          :      0.16s CPU      0.18s WALL (     586 calls)
     ffts         :      0.02s CPU      0.02s WALL (      54 calls)
     fftw         :     28.31s CPU     30.72s WALL (  155610 calls)

     Parallel routines
     fft_scatt_xy :      3.49s CPU      3.77s WALL (  156250 calls)
     fft_scatt_yz :      7.81s CPU      8.57s WALL (  156250 calls)

     PWSCF        :   6m45.35s CPU   6m55.30s WALL


   This run was terminated on:  21:42:39  28Sep2024            

=------------------------------------------------------------------------------=
   JOB DONE.
=------------------------------------------------------------------------------=
