
     Program PWSCF v.6.7MaX starts on 28Sep2024 at 21: 0:19 

     This program is part of the open-source Quantum ESPRESSO suite
     for quantum simulation of materials; please cite
         "P. Giannozzi et al., J. Phys.:Condens. Matter 21 395502 (2009);
         "P. Giannozzi et al., J. Phys.:Condens. Matter 29 465901 (2017);
          URL http://www.quantum-espresso.org", 
     in publications or presentations arising from this work. More details at
     http://www.quantum-espresso.org/quote

     Parallel version (MPI), running on     4 processors

     MPI processes distributed on     1 nodes
     R & G space division:  proc/nbgrp/npool/nimage =       4
     Waiting for input...
     Reading input from standard input

     Current dimensions of program PWSCF are:
     Max number of different atomic species (ntypx) = 10
     Max number of k-points (npk) =  40000
     Max angular momentum in pseudopotentials (lmaxx) =  3
     Message from routine iosys:
     wrong startingpot: use default (1)

     Subspace diagonalization in iterative solution of the eigenvalue problem:
     one sub-group per band group will be used
     scalapack distributed-memory algorithm (size of sub-group:  2*  2 procs)

     Message from routine setup:
     using ibrav=0 with symmetry is DISCOURAGED, use correct ibrav instead

     Parallelization info
     --------------------
     sticks:   dense  smooth     PW     G-vecs:    dense   smooth      PW
     Min          77      77     22                 2723     2723     455
     Max          79      79     23                 2727     2727     457
     Sum         313     313     91                10901    10901    1823



     bravais-lattice index     =            0
     lattice parameter (alat)  =      10.5468  a.u.
     unit-cell volume          =    2535.5110 (a.u.)^3
     number of atoms/cell      =           30
     number of atomic types    =            4
     number of electrons       =       294.00
     number of Kohn-Sham states=          200
     kinetic-energy cutoff     =      10.0000  Ry
     charge density cutoff     =      40.0000  Ry
     scf convergence threshold =      1.0E-03
     mixing beta               =       0.2000
     number of iterations used =            8  plain     mixing
     Exchange-correlation=  SLA  PW   PBX  PBC
                           (   1   4   3   4   0   0   0)

     celldm(1)=  10.546849  celldm(2)=   0.000000  celldm(3)=   0.000000
     celldm(4)=   0.000000  celldm(5)=   0.000000  celldm(6)=   0.000000

     crystal axes: (cart. coord. in units of alat)
               a(1) = (   1.000000  -0.000000  -0.000000 )  
               a(2) = (  -0.500000   0.866025  -0.000000 )  
               a(3) = (   0.000000  -0.000000   2.495552 )  

     reciprocal axes: (cart. coord. in units 2 pi/alat)
               b(1) = (  1.000000  0.577350  0.000000 )  
               b(2) = (  0.000000  1.154701  0.000000 )  
               b(3) = (  0.000000  0.000000  0.400713 )  


     PseudoPot. # 1 for O  read from file:
     /home/aldair1809/Programas/QE/q-e-qe-7.3/pseudo/o_pbe_v1.2.uspp.F.UPF
     MD5 check sum: 734c27235a0248c51dbae37a1fbe46ec
     Pseudo is Ultrasoft + core correction, Zval =  6.0
     Generated by new atomic code, or converted to UPF format
     Using radial grid of  737 points,  5 beta functions with: 
                l(1) =   0
                l(2) =   0
                l(3) =   1
                l(4) =   1
                l(5) =   2
     Q(r) pseudized with  8 coefficients,  rinner =    0.900   0.900   0.900
                                                       0.900   0.900

     PseudoPot. # 2 for Bi read from file:
     /home/aldair1809/Programas/QE/q-e-qe-7.3/pseudo/bi_pbe_v1.uspp.F.UPF
     MD5 check sum: cceb9f28ec65b6d7ff33140f5b0b1758
     Pseudo is Ultrasoft + core correction, Zval = 15.0
     Generated by new atomic code, or converted to UPF format
     Using radial grid of  899 points,  6 beta functions with: 
                l(1) =   0
                l(2) =   0
                l(3) =   1
                l(4) =   1
                l(5) =   2
                l(6) =   2
     Q(r) pseudized with  6 coefficients,  rinner =    1.000   1.000   1.000
                                                       1.000   1.000

     PseudoPot. # 3 for Fe read from file:
     /home/aldair1809/Programas/QE/q-e-qe-7.3/pseudo/fe_pbe_v1.5.uspp.F.UPF
     MD5 check sum: a130daea23fe5165f5d574ae7f82ed95
     Pseudo is Ultrasoft + core correction, Zval = 16.0
     Generated by new atomic code, or converted to UPF format
     Using radial grid of  861 points,  6 beta functions with: 
                l(1) =   0
                l(2) =   0
                l(3) =   1
                l(4) =   1
                l(5) =   2
                l(6) =   2
     Q(r) pseudized with  8 coefficients,  rinner =    1.000   1.000   1.000
                                                       1.000   1.000

     PseudoPot. # 4 for Fe read from file:
     /home/aldair1809/Programas/QE/q-e-qe-7.3/pseudo/fe_pbe_v1.5.uspp.F.UPF
     MD5 check sum: a130daea23fe5165f5d574ae7f82ed95
     Pseudo is Ultrasoft + core correction, Zval = 16.0
     Generated by new atomic code, or converted to UPF format
     Using radial grid of  861 points,  6 beta functions with: 
                l(1) =   0
                l(2) =   0
                l(3) =   1
                l(4) =   1
                l(5) =   2
                l(6) =   2
     Q(r) pseudized with  8 coefficients,  rinner =    1.000   1.000   1.000
                                                       1.000   1.000

     atomic species   valence    mass     pseudopotential
        O              6.00    15.99940     O ( 1.00)
        Bi            15.00   208.98040     Bi( 1.00)
        Fe1           16.00    55.84500     Fe( 1.00)
        Fe2           16.00    55.84500     Fe( 1.00)

     Starting magnetic structure 
     atomic species   magnetization
        O            0.000
        Bi           0.000
        Fe1         -0.800
        Fe2          0.800

      3 Sym. Ops. (no inversion) found


                                    s                        frac. trans.

      isym =  1     identity                                     

 cryst.   s( 1) = (     1          0          0      )
                  (     0          1          0      )
                  (     0          0          1      )

 cart.    s( 1) = (  1.0000000 -0.0000000  0.0000000 )
                  (  0.0000000  1.0000000  0.0000000 )
                  (  0.0000000  0.0000000  1.0000000 )


      isym =  2     120 deg rotation - cryst. axis [0,0,1]       

 cryst.   s( 2) = (     0          1          0      )
                  (    -1         -1          0      )
                  (     0          0          1      )

 cart.    s( 2) = ( -0.5000000 -0.8660254  0.0000000 )
                  (  0.8660254 -0.5000000  0.0000000 )
                  (  0.0000000  0.0000000  1.0000000 )


      isym =  3     120 deg rotation - cryst. axis [0,0,-1]      

 cryst.   s( 3) = (    -1         -1          0      )
                  (     1          0          0      )
                  (     0          0          1      )

 cart.    s( 3) = ( -0.5000000  0.8660254  0.0000000 )
                  ( -0.8660254 -0.5000000  0.0000000 )
                  (  0.0000000  0.0000000  1.0000000 )


   Cartesian axes

     site n.     atom                  positions (alat units)
         1           Fe1 tau(   1) = (   0.0000000   0.0000000   1.9384582  )
         2           Fe1 tau(   2) = (  -0.0000005   0.5773506   2.3615556  )
         3           Fe1 tau(   3) = (   0.5000005   0.2886748   1.5200787  )
         4           Fe2 tau(   4) = (   0.5000005   0.2886748   0.2722626  )
         5           Fe2 tau(   5) = (   0.0000000   0.0000000   0.6907071  )
         6           Fe2 tau(   6) = (  -0.0000005   0.5773506   1.1137452  )
         7           Bi  tau(   7) = (   0.5000005   0.2886748   2.0843143  )
         8           Bi  tau(   8) = (  -0.0000005   0.5773506   1.6713980  )
         9           Bi  tau(   9) = (  -0.0000005   0.5773506   0.4235448  )
        10           Bi  tau(  10) = (   0.0000000   0.0000000   0.0002821  )
        11           Bi  tau(  11) = (   0.0000000   0.0000000   1.2481025  )
        12           Bi  tau(  12) = (   0.5000005   0.2886748   0.8364865  )
        13           O   tau(  13) = (  -0.3105904   0.6551932   2.2011299  )
        14           O   tau(  14) = (   0.0878817   0.2694488   2.2011299  )
        15           O   tau(  15) = (   0.2227102   0.8074080   2.2011299  )
        16           O   tau(  16) = (   0.4087504   0.5589755   1.7846473  )
        17           O   tau(  17) = (   0.3115373   0.0745013   1.7846473  )
        18           O   tau(  18) = (   0.7797108   0.2325494   1.7846473  )
        19           O   tau(  19) = (   0.6884743   0.0745026   0.5368244  )
        20           O   tau(  20) = (   0.5912412   0.5589858   0.5368244  )
        21           O   tau(  21) = (   0.2202830   0.2325379   0.5368244  )
        22           O   tau(  22) = (  -0.0823010   0.8482993   0.1166193  )
        23           O   tau(  23) = (  -0.1934983   0.3706010   0.1166193  )
        24           O   tau(  24) = (   0.2757993   0.5131505   0.1166193  )
        25           O   tau(  25) = (   0.1934855   0.3705936   1.3644430  )
        26           O   tau(  26) = (   0.0823138   0.8482919   1.3644430  )
        27           O   tau(  27) = (  -0.2757993   0.5131653   1.3644430  )
        28           O   tau(  28) = (  -0.0878870   0.2694458   0.9533686  )
        29           O   tau(  29) = (   0.3105971   0.6551893   0.9533686  )
        30           O   tau(  30) = (  -0.2227086   0.8074149   0.9533686  )

   Crystallographic axes

     site n.     atom                  positions (cryst. coord.)
         1           Fe1 tau(   1) = (  0.0000000  0.0000000  0.7767652  )
         2           Fe1 tau(   2) = (  0.3333330  0.6666670  0.9463058  )
         3           Fe1 tau(   3) = (  0.6666670  0.3333330  0.6091152  )
         4           Fe2 tau(   4) = (  0.6666670  0.3333330  0.1090991  )
         5           Fe2 tau(   5) = (  0.0000000  0.0000000  0.2767753  )
         6           Fe2 tau(   6) = (  0.3333330  0.6666670  0.4462921  )
         7           Bi  tau(   7) = (  0.6666670  0.3333330  0.8352117  )
         8           Bi  tau(   8) = (  0.3333330  0.6666670  0.6697508  )
         9           Bi  tau(   9) = (  0.3333330  0.6666670  0.1697199  )
        10           Bi  tau(  10) = (  0.0000000  0.0000000  0.0001130  )
        11           Bi  tau(  11) = (  0.0000000  0.0000000  0.5001308  )
        12           Bi  tau(  12) = (  0.6666670  0.3333330  0.3351910  )
        13           O   tau(  13) = (  0.0676856  0.7565520  0.8820212  )
        14           O   tau(  14) = (  0.2434480  0.3111326  0.8820212  )
        15           O   tau(  15) = (  0.6888674  0.9323144  0.8820212  )
        16           O   tau(  16) = (  0.7314750  0.6454493  0.7151312  )
        17           O   tau(  17) = (  0.3545507  0.0860267  0.7151312  )
        18           O   tau(  18) = (  0.9139733  0.2685250  0.7151312  )
        19           O   tau(  19) = (  0.7314884  0.0860282  0.2151125  )
        20           O   tau(  20) = (  0.9139718  0.6454612  0.2151125  )
        21           O   tau(  21) = (  0.3545388  0.2685116  0.2151125  )
        22           O   tau(  22) = (  0.4074649  0.9795317  0.0467309  )
        23           O   tau(  23) = (  0.0204683  0.4279331  0.0467309  )
        24           O   tau(  24) = (  0.5720669  0.5925351  0.0467309  )
        25           O   tau(  25) = (  0.4074478  0.4279246  0.5467499  )
        26           O   tau(  26) = (  0.5720754  0.9795232  0.5467499  )
        27           O   tau(  27) = (  0.0204768  0.5925522  0.5467499  )
        28           O   tau(  28) = (  0.0676775  0.3111292  0.3820271  )
        29           O   tau(  29) = (  0.6888708  0.7565474  0.3820271  )
        30           O   tau(  30) = (  0.2434526  0.9323225  0.3820271  )

     number of k points=     2  Gaussian smearing, width (Ry)=  0.0100
                       cart. coord. in units 2pi/alat
        k(    1) = (   0.0000000   0.0000000   0.0000000), wk =   0.2500000
        k(    2) = (   0.0000000  -0.5773503   0.0000000), wk =   0.7500000

                       cryst. coord.
        k(    1) = (   0.0000000   0.0000000   0.0000000), wk =   0.2500000
        k(    2) = (   0.0000000  -0.5000000   0.0000000), wk =   0.7500000

     Dense  grid:    10901 G-vectors     FFT dimensions: (  24,  24,  54)

     Dynamical RAM for                 wfc:       1.03 MB

     Dynamical RAM for     wfc (w. buffer):       5.16 MB

     Dynamical RAM for           str. fact:       0.17 MB

     Dynamical RAM for           local pot:       0.00 MB

     Dynamical RAM for          nlocal pot:       2.32 MB

     Dynamical RAM for                qrad:       2.04 MB

     Dynamical RAM for          rho,v,vnew:       0.62 MB

     Dynamical RAM for               rhoin:       0.21 MB

     Dynamical RAM for            rho*nmix:       1.33 MB

     Dynamical RAM for           G-vectors:       0.18 MB

     Dynamical RAM for          h,s,v(r/c):       0.46 MB

     Dynamical RAM for          <psi|beta>:       1.37 MB

     Dynamical RAM for      wfcinit/wfcrot:       3.06 MB

     Dynamical RAM for           addusdens:       8.52 MB

     Estimated static dynamical RAM per process >      12.59 MB

     Estimated max dynamical RAM per process >      21.11 MB

     Estimated total dynamical RAM >      84.45 MB

     Check: negative core charge=   -0.006677
     Generating pointlists ...
     new r_m :   0.1458 (alat units)  1.5374 (a.u.) for type    1
     new r_m :   0.1687 (alat units)  1.7788 (a.u.) for type    2
     new r_m :   0.1458 (alat units)  1.5374 (a.u.) for type    3
     new r_m :   0.1458 (alat units)  1.5374 (a.u.) for type    4

     Initial potential from superposition of free atoms

     starting charge  281.99969, renormalised to  294.00000

     negative rho (up, down):  3.412E-01 3.412E-01
     Starting wfcs are  204 randomized atomic wfcs

     total cpu time spent up to now is        2.7 secs

     Self-consistent Calculation

     iteration #  1     ecut=    10.00 Ry     beta= 0.20
     CG style diagonalization
     ethr =  1.00E-02,  avg # of iterations =  4.2

     negative rho (up, down):  1.584E-01 1.589E-01

     total cpu time spent up to now is       15.5 secs

     total energy              =   -3005.85046364 Ry
     estimated scf accuracy    <     249.91285913 Ry

     total magnetization       =     0.25 Bohr mag/cell
     absolute magnetization    =     4.38 Bohr mag/cell

     iteration #  2     ecut=    10.00 Ry     beta= 0.20
     CG style diagonalization
     ethr =  1.00E-02,  avg # of iterations =  3.6

     negative rho (up, down):  1.058E-01 1.059E-01

     total cpu time spent up to now is       24.4 secs

     total energy              =   -2976.31396198 Ry
     estimated scf accuracy    <     102.04201497 Ry

     total magnetization       =    -0.55 Bohr mag/cell
     absolute magnetization    =    16.52 Bohr mag/cell

     iteration #  3     ecut=    10.00 Ry     beta= 0.20
     CG style diagonalization
     ethr =  1.00E-02,  avg # of iterations =  3.5

     negative rho (up, down):  9.792E-02 9.775E-02

     total cpu time spent up to now is       32.5 secs

     total energy              =   -2974.22028924 Ry
     estimated scf accuracy    <      31.41430602 Ry

     total magnetization       =     0.55 Bohr mag/cell
     absolute magnetization    =    16.64 Bohr mag/cell

     iteration #  4     ecut=    10.00 Ry     beta= 0.20
     CG style diagonalization
     ethr =  1.00E-02,  avg # of iterations =  3.2

     negative rho (up, down):  9.601E-02 9.607E-02

     total cpu time spent up to now is       39.8 secs

     total energy              =   -2972.24507611 Ry
     estimated scf accuracy    <      68.56026752 Ry

     total magnetization       =    -0.92 Bohr mag/cell
     absolute magnetization    =    11.59 Bohr mag/cell

     iteration #  5     ecut=    10.00 Ry     beta= 0.20
     CG style diagonalization
     ethr =  1.00E-02,  avg # of iterations =  3.0

     negative rho (up, down):  9.363E-02 9.375E-02

     total cpu time spent up to now is       46.6 secs

     total energy              =   -2975.18801456 Ry
     estimated scf accuracy    <      13.11032995 Ry

     total magnetization       =     1.33 Bohr mag/cell
     absolute magnetization    =    12.26 Bohr mag/cell

     iteration #  6     ecut=    10.00 Ry     beta= 0.20
     CG style diagonalization
     ethr =  4.46E-03,  avg # of iterations =  3.0

     negative rho (up, down):  9.278E-02 9.288E-02

     total cpu time spent up to now is       53.5 secs

     total energy              =   -2975.79626414 Ry
     estimated scf accuracy    <       2.74326708 Ry

     total magnetization       =     0.14 Bohr mag/cell
     absolute magnetization    =    10.70 Bohr mag/cell

     iteration #  7     ecut=    10.00 Ry     beta= 0.20
     CG style diagonalization
     ethr =  9.33E-04,  avg # of iterations =  3.4

     negative rho (up, down):  9.267E-02 9.276E-02

     total cpu time spent up to now is       61.3 secs

     total energy              =   -2975.82433970 Ry
     estimated scf accuracy    <       8.87399043 Ry

     total magnetization       =     0.20 Bohr mag/cell
     absolute magnetization    =     8.97 Bohr mag/cell

     iteration #  8     ecut=    10.00 Ry     beta= 0.20
     CG style diagonalization
     ethr =  9.33E-04,  avg # of iterations =  3.0

     negative rho (up, down):  9.352E-02 9.355E-02

     total cpu time spent up to now is       68.2 secs

     total energy              =   -2976.06551509 Ry
     estimated scf accuracy    <       0.77509448 Ry

     total magnetization       =    -0.01 Bohr mag/cell
     absolute magnetization    =     8.71 Bohr mag/cell

     iteration #  9     ecut=    10.00 Ry     beta= 0.20
     CG style diagonalization
     ethr =  2.64E-04,  avg # of iterations =  3.1

     negative rho (up, down):  9.414E-02 9.417E-02

     total cpu time spent up to now is       75.3 secs

     total energy              =   -2976.12569880 Ry
     estimated scf accuracy    <       0.36520469 Ry

     total magnetization       =     0.13 Bohr mag/cell
     absolute magnetization    =     7.07 Bohr mag/cell

     iteration # 10     ecut=    10.00 Ry     beta= 0.20
     CG style diagonalization
     ethr =  1.24E-04,  avg # of iterations =  3.0

     negative rho (up, down):  9.423E-02 9.425E-02

     total cpu time spent up to now is       82.3 secs

     total energy              =   -2976.15895205 Ry
     estimated scf accuracy    <       0.10601297 Ry

     total magnetization       =     0.09 Bohr mag/cell
     absolute magnetization    =     6.09 Bohr mag/cell

     iteration # 11     ecut=    10.00 Ry     beta= 0.20
     CG style diagonalization
     ethr =  3.61E-05,  avg # of iterations =  3.1

     negative rho (up, down):  9.404E-02 9.406E-02

     total cpu time spent up to now is       89.7 secs

     total energy              =   -2976.17989357 Ry
     estimated scf accuracy    <       0.05660858 Ry

     total magnetization       =     0.03 Bohr mag/cell
     absolute magnetization    =     5.52 Bohr mag/cell

     iteration # 12     ecut=    10.00 Ry     beta= 0.20
     CG style diagonalization
     ethr =  1.93E-05,  avg # of iterations =  3.0

     negative rho (up, down):  9.356E-02 9.357E-02

     total cpu time spent up to now is       96.7 secs

     total energy              =   -2976.19887275 Ry
     estimated scf accuracy    <       0.02598959 Ry

     total magnetization       =     0.09 Bohr mag/cell
     absolute magnetization    =     4.95 Bohr mag/cell

     iteration # 13     ecut=    10.00 Ry     beta= 0.20
     CG style diagonalization
     c_bands:  1 eigenvalues not converged
     ethr =  8.84E-06,  avg # of iterations =  3.1

     negative rho (up, down):  9.318E-02 9.319E-02

     total cpu time spent up to now is      103.9 secs

     total energy              =   -2976.21334921 Ry
     estimated scf accuracy    <       0.01873590 Ry

     total magnetization       =     0.12 Bohr mag/cell
     absolute magnetization    =     4.13 Bohr mag/cell

     iteration # 14     ecut=    10.00 Ry     beta= 0.20
     CG style diagonalization
     c_bands:  1 eigenvalues not converged
     ethr =  6.37E-06,  avg # of iterations =  3.1

     negative rho (up, down):  9.303E-02 9.303E-02

     total cpu time spent up to now is      110.9 secs

     total energy              =   -2976.22313511 Ry
     estimated scf accuracy    <       0.00728710 Ry

     total magnetization       =     0.02 Bohr mag/cell
     absolute magnetization    =     3.34 Bohr mag/cell

     iteration # 15     ecut=    10.00 Ry     beta= 0.20
     CG style diagonalization
     ethr =  2.48E-06,  avg # of iterations =  3.1

     negative rho (up, down):  9.289E-02 9.289E-02

     total cpu time spent up to now is      118.0 secs

     total energy              =   -2976.22988641 Ry
     estimated scf accuracy    <       0.00608174 Ry

     total magnetization       =     0.06 Bohr mag/cell
     absolute magnetization    =     2.78 Bohr mag/cell

     iteration # 16     ecut=    10.00 Ry     beta= 0.20
     CG style diagonalization
     ethr =  2.07E-06,  avg # of iterations =  3.1

     negative rho (up, down):  9.283E-02 9.284E-02

     total cpu time spent up to now is      125.0 secs

     total energy              =   -2976.23492708 Ry
     estimated scf accuracy    <       0.00257120 Ry

     total magnetization       =     0.03 Bohr mag/cell
     absolute magnetization    =     2.00 Bohr mag/cell

     iteration # 17     ecut=    10.00 Ry     beta= 0.20
     CG style diagonalization
     ethr =  8.75E-07,  avg # of iterations =  3.0

     negative rho (up, down):  9.285E-02 9.285E-02

     total cpu time spent up to now is      131.9 secs

     total energy              =   -2976.23694062 Ry
     estimated scf accuracy    <       0.00119493 Ry

     total magnetization       =     0.02 Bohr mag/cell
     absolute magnetization    =     1.39 Bohr mag/cell

     iteration # 18     ecut=    10.00 Ry     beta= 0.20
     CG style diagonalization
     ethr =  4.06E-07,  avg # of iterations =  3.0

     negative rho (up, down):  9.290E-02 9.290E-02

     total cpu time spent up to now is      139.0 secs

     total energy              =   -2976.23789103 Ry
     estimated scf accuracy    <       0.00400219 Ry

     total magnetization       =     0.04 Bohr mag/cell
     absolute magnetization    =     1.21 Bohr mag/cell

     iteration # 19     ecut=    10.00 Ry     beta= 0.20
     CG style diagonalization
     ethr =  4.06E-07,  avg # of iterations =  3.0

     negative rho (up, down):  9.298E-02 9.297E-02

     Magnetic moment per site:
     atom:    1    charge:   11.4902    magn:   -0.0326    constr:    0.0000
     atom:    2    charge:   11.4718    magn:   -0.0875    constr:    0.0000
     atom:    3    charge:   11.4732    magn:   -0.0712    constr:    0.0000
     atom:    4    charge:   11.4716    magn:    0.0744    constr:    0.0000
     atom:    5    charge:   11.4875    magn:    0.0328    constr:    0.0000
     atom:    6    charge:   11.4762    magn:    0.0924    constr:    0.0000
     atom:    7    charge:   10.3183    magn:   -0.0033    constr:    0.0000
     atom:    8    charge:   10.3321    magn:   -0.0006    constr:    0.0000
     atom:    9    charge:   10.3315    magn:    0.0007    constr:    0.0000
     atom:   10    charge:   10.3044    magn:    0.0002    constr:    0.0000
     atom:   11    charge:   10.3047    magn:    0.0001    constr:    0.0000
     atom:   12    charge:   10.3179    magn:    0.0034    constr:    0.0000
     atom:   13    charge:    5.0039    magn:    0.0014    constr:    0.0000
     atom:   14    charge:    5.0039    magn:    0.0014    constr:    0.0000
     atom:   15    charge:    5.0039    magn:    0.0014    constr:    0.0000
     atom:   16    charge:    5.0025    magn:    0.0012    constr:    0.0000
     atom:   17    charge:    5.0025    magn:    0.0012    constr:    0.0000
     atom:   18    charge:    5.0025    magn:    0.0012    constr:    0.0000
     atom:   19    charge:    5.0022    magn:   -0.0013    constr:    0.0000
     atom:   20    charge:    5.0022    magn:   -0.0013    constr:    0.0000
     atom:   21    charge:    5.0022    magn:   -0.0013    constr:    0.0000
     atom:   22    charge:    5.0070    magn:    0.0076    constr:    0.0000
     atom:   23    charge:    5.0070    magn:    0.0076    constr:    0.0000
     atom:   24    charge:    5.0070    magn:    0.0076    constr:    0.0000
     atom:   25    charge:    5.0078    magn:   -0.0074    constr:    0.0000
     atom:   26    charge:    5.0078    magn:   -0.0074    constr:    0.0000
     atom:   27    charge:    5.0078    magn:   -0.0074    constr:    0.0000
     atom:   28    charge:    5.0044    magn:   -0.0013    constr:    0.0000
     atom:   29    charge:    5.0044    magn:   -0.0013    constr:    0.0000
     atom:   30    charge:    5.0044    magn:   -0.0013    constr:    0.0000

     total cpu time spent up to now is      147.1 secs

     End of self-consistent calculation

 ------ SPIN UP ------------


          k = 0.0000 0.0000 0.0000 (  1371 PWs)   bands (ev):

  -123.4530-120.7766-120.6505-120.6247-120.5691-117.9729 -66.5172 -66.5172
   -65.5999 -62.2863 -62.2863 -62.0717 -62.0717 -60.7436 -60.6305 -60.0723
   -60.0723 -59.9398 -59.9398 -56.2271 -56.0228 -54.9058 -54.9058 -54.0036
   -12.8899 -12.7488 -12.6518 -12.2920 -12.2743 -12.2743 -12.2425 -12.2425
   -12.1798 -12.1737 -12.1737 -12.1424 -12.1424 -12.0552 -12.0295 -12.0294
   -11.9372 -11.9372 -10.5626 -10.5626 -10.4582 -10.1755 -10.1755 -10.1362
   -10.1362 -10.0807 -10.0807 -10.0546 -10.0546 -10.0300 -10.0300  -9.8659
    -9.8104  -9.6233  -9.6232  -9.6101  -9.6101  -9.4499  -9.4185  -9.3103
    -9.3103  -9.2324  -9.2324  -9.2148  -9.2148  -8.8919  -8.5989  -8.5989
     2.0483   2.1613   2.2563   2.8168   2.8737   3.4028   3.8414   3.8414
     4.1996   5.2293   5.9503   5.9789   6.1856   6.1856   6.6126   6.6126
     6.6609   6.6609   7.1760   7.1760   7.2069   7.2070   7.3412   7.4478
     7.5191   7.5191   7.7946   7.9291   7.9291   8.0013   8.0013   8.1353
     8.5445   8.6995   8.8216   8.8216   8.9017   8.9017   9.7231   9.7231
     9.8252   9.9172  10.1914  10.1914  10.2448  10.2448  10.4637  10.4637
    10.9301  11.1310  11.1310  11.1503  11.1503  11.2586  11.2586  11.2744
    11.2959  11.3142  11.3997  11.4117  11.4117  11.5469  11.6469  11.6470
    11.7335  11.7335  11.9336  12.8652  12.8652  13.3502  13.6070  13.6070
    13.6184  13.7222  13.7222  14.2872  14.2872  14.2949  14.3775  14.3775
    14.3835  16.3466  16.3466  16.4172  16.4172  16.5542  16.5542  16.7460
    16.7946  16.9842  17.2681  17.2681  17.2984  17.3075  17.4242  18.3546
    18.3546  18.5555  18.5555  18.6550  18.6550  18.7459  19.0559  19.1039
    19.6309  19.6466  19.6466  19.6992  19.6992  20.5557  20.5557  21.2322
    21.3248  21.4464  22.0596  22.0596  23.2602  23.2603  23.3962  23.3963
    23.9092  24.0657  24.0658  24.2360  24.7774  25.0813  25.1143  25.2093

     occupation numbers 
     1.0000   1.0000   1.0000   1.0000   1.0000   1.0000   1.0000   1.0000
     1.0000   1.0000   1.0000   1.0000   1.0000   1.0000   1.0000   1.0000
     1.0000   1.0000   1.0000   1.0000   1.0000   1.0000   1.0000   1.0000
     1.0000   1.0000   1.0000   1.0000   1.0000   1.0000   1.0000   1.0000
     1.0000   1.0000   1.0000   1.0000   1.0000   1.0000   1.0000   1.0000
     1.0000   1.0000   1.0000   1.0000   1.0000   1.0000   1.0000   1.0000
     1.0000   1.0000   1.0000   1.0000   1.0000   1.0000   1.0000   1.0000
     1.0000   1.0000   1.0000   1.0000   1.0000   1.0000   1.0000   1.0000
     1.0000   1.0000   1.0000   1.0000   1.0000   1.0000   1.0000   1.0000
     1.0000   1.0000   1.0000   1.0000   1.0000   1.0000   1.0000   1.0000
     1.0000   1.0000   1.0000   1.0000   1.0000   1.0000   1.0000   1.0000
     1.0000   1.0000   1.0000   1.0000   1.0000   1.0000   1.0000   1.0000
     1.0000   1.0000   1.0000   1.0000   1.0000   1.0000   1.0000   1.0000
     1.0000   1.0000   1.0000   1.0000   1.0000   1.0000   1.0000   1.0000
     1.0000   1.0000   1.0000   1.0000   1.0000   1.0000   1.0000   1.0000
     1.0000   1.0000   1.0000   1.0000   1.0000   1.0000   1.0000   1.0000
     1.0000   1.0000   1.0000   1.0000   1.0000   1.0000   1.0000   1.0000
     1.0000   1.0000   1.0000   1.0000   1.0000   1.0000   1.0000   1.0000
     1.0000   1.0000   1.0000   0.0553   0.0553   0.0470   0.0056   0.0056
     0.0047   0.0000   0.0000   0.0000   0.0000   0.0000   0.0000   0.0000
     0.0000   0.0000   0.0000   0.0000   0.0000   0.0000   0.0000   0.0000
     0.0000   0.0000   0.0000   0.0000   0.0000   0.0000   0.0000   0.0000
     0.0000   0.0000   0.0000   0.0000   0.0000   0.0000   0.0000   0.0000
     0.0000   0.0000   0.0000   0.0000   0.0000   0.0000   0.0000   0.0000
     0.0000   0.0000   0.0000   0.0000   0.0000   0.0000   0.0000   0.0000

          k = 0.0000-0.5774 0.0000 (  1352 PWs)   bands (ev):

  -120.7889-120.6344-120.5319-120.4671-120.4025-119.7803 -61.0488 -60.6914
   -60.4346 -60.4080 -60.3927 -60.2956 -60.0563 -59.9527 -59.9090 -59.7405
   -59.6383 -59.5956 -59.4307 -59.3244 -59.0590 -58.9155 -58.3130 -57.1321
   -12.5832 -12.5140 -12.4647 -12.4590 -12.4282 -12.3772 -12.2249 -12.2104
   -12.1853 -12.1778 -12.1715 -12.1319 -12.0791 -12.0559 -11.9720 -11.9621
   -11.9443 -11.9229 -10.0631 -10.0318 -10.0293  -9.9673  -9.9546  -9.9278
    -9.9192  -9.9083  -9.8931  -9.8911  -9.8450  -9.8279  -9.8252  -9.7739
    -9.7603  -9.7598  -9.7565  -9.7201  -9.6907  -9.5267  -9.5060  -9.4991
    -9.4867  -9.4779  -9.4569  -9.4489  -9.3902  -9.3595  -9.2971  -8.9589
     2.0716   2.1969   2.2431   2.4839   2.4934   2.7202   5.6601   6.2661
     6.3447   6.4873   6.5694   6.5869   6.9957   7.0533   7.0666   7.1356
     7.2396   7.5343   7.7663   7.8117   7.8234   7.8786   8.0119   8.1766
     8.4214   8.5307   8.6213   8.6533   8.8262   8.9313   8.9746   9.0043
     9.2613   9.2900   9.3306   9.3704   9.4056   9.4235   9.5211   9.5581
     9.6595   9.7500  10.0339  10.1762  10.3145  10.3935  10.4124  10.4500
    10.4670  10.5460  10.5593  10.9228  10.9357  10.9479  11.1775  11.2312
    11.3267  11.5300  11.6388  11.6696  12.3203  12.3885  12.4490  12.5068
    12.5666  12.7768  13.1614  13.1950  13.3123  13.5685  13.6555  13.9340
    14.0123  14.0675  14.0757  14.1108  14.4562  14.6415  14.8447  14.9197
    15.0514  15.3550  15.3783  15.4668  15.5487  15.8048  16.0132  16.1608
    16.2581  16.4576  16.5965  16.6964  16.7872  17.2643  17.3101  17.6686
    17.7127  17.7535  17.8689  18.9729  18.9952  19.0887  19.1758  19.3834
    19.4466  19.4790  19.6537  19.7006  19.9830  20.0632  20.2306  20.3428
    20.4762  21.5567  23.0268  23.2940  23.3739  23.9872  24.0856  24.3569
    24.4027  24.4824  24.8352  24.8938  24.9622  25.0556  25.3055  25.4248

     occupation numbers 
     1.0000   1.0000   1.0000   1.0000   1.0000   1.0000   1.0000   1.0000
     1.0000   1.0000   1.0000   1.0000   1.0000   1.0000   1.0000   1.0000
     1.0000   1.0000   1.0000   1.0000   1.0000   1.0000   1.0000   1.0000
     1.0000   1.0000   1.0000   1.0000   1.0000   1.0000   1.0000   1.0000
     1.0000   1.0000   1.0000   1.0000   1.0000   1.0000   1.0000   1.0000
     1.0000   1.0000   1.0000   1.0000   1.0000   1.0000   1.0000   1.0000
     1.0000   1.0000   1.0000   1.0000   1.0000   1.0000   1.0000   1.0000
     1.0000   1.0000   1.0000   1.0000   1.0000   1.0000   1.0000   1.0000
     1.0000   1.0000   1.0000   1.0000   1.0000   1.0000   1.0000   1.0000
     1.0000   1.0000   1.0000   1.0000   1.0000   1.0000   1.0000   1.0000
     1.0000   1.0000   1.0000   1.0000   1.0000   1.0000   1.0000   1.0000
     1.0000   1.0000   1.0000   1.0000   1.0000   1.0000   1.0000   1.0000
     1.0000   1.0000   1.0000   1.0000   1.0000   1.0000   1.0000   1.0000
     1.0000   1.0000   1.0000   1.0000   1.0000   1.0000   1.0000   1.0000
     1.0000   1.0000   1.0000   1.0000   1.0000   1.0000   1.0000   1.0000
     1.0000   1.0000   1.0000   1.0000   1.0000   1.0000   1.0000   1.0000
     1.0000   1.0000   1.0000   1.0000   1.0000   1.0000   1.0000   1.0000
     1.0000   1.0000   1.0000   1.0000   1.0000   1.0000   1.0000   0.9811
     0.8966   0.7545   0.7269   0.5941   0.0004   0.0000   0.0000   0.0000
     0.0000   0.0000   0.0000   0.0000   0.0000   0.0000   0.0000   0.0000
     0.0000   0.0000   0.0000   0.0000   0.0000   0.0000   0.0000   0.0000
     0.0000   0.0000   0.0000   0.0000   0.0000   0.0000   0.0000   0.0000
     0.0000   0.0000   0.0000   0.0000   0.0000   0.0000   0.0000   0.0000
     0.0000   0.0000   0.0000   0.0000   0.0000   0.0000   0.0000   0.0000
     0.0000   0.0000   0.0000   0.0000   0.0000   0.0000   0.0000   0.0000

 ------ SPIN DOWN ----------


          k = 0.0000 0.0000 0.0000 (  1371 PWs)   bands (ev):

  -123.4513-120.7723-120.6498-120.6241-120.5683-117.9714 -66.5151 -66.5151
   -65.5987 -62.2832 -62.2831 -62.0705 -62.0704 -60.7421 -60.6297 -60.0704
   -60.0704 -59.9376 -59.9376 -56.2253 -56.0223 -54.9036 -54.9036 -54.0024
   -12.8900 -12.7489 -12.6518 -12.2920 -12.2744 -12.2744 -12.2426 -12.2426
   -12.1801 -12.1737 -12.1736 -12.1426 -12.1426 -12.0550 -12.0299 -12.0298
   -11.9366 -11.9366 -10.5625 -10.5625 -10.4582 -10.1754 -10.1754 -10.1361
   -10.1361 -10.0806 -10.0806 -10.0546 -10.0545 -10.0299 -10.0299  -9.8658
    -9.8103  -9.6232  -9.6232  -9.6100  -9.6100  -9.4498  -9.4184  -9.3102
    -9.3102  -9.2324  -9.2324  -9.2148  -9.2148  -8.8918  -8.5989  -8.5989
     2.0485   2.1615   2.2565   2.8169   2.8739   3.4030   3.8435   3.8435
     4.2005   5.2298   5.9506   5.9797   6.1864   6.1864   6.6141   6.6142
     6.6618   6.6618   7.1770   7.1770   7.2084   7.2084   7.3418   7.4482
     7.5197   7.5197   7.7947   7.9294   7.9294   8.0021   8.0021   8.1354
     8.5449   8.6994   8.8243   8.8243   8.9024   8.9024   9.7239   9.7239
     9.8254   9.9177  10.1919  10.1919  10.2448  10.2448  10.4644  10.4644
    10.9308  11.1319  11.1319  11.1505  11.1505  11.2589  11.2589  11.2751
    11.2957  11.3150  11.4005  11.4121  11.4121  11.5472  11.6472  11.6472
    11.7340  11.7340  11.9337  12.8665  12.8665  13.3508  13.6084  13.6084
    13.6187  13.7240  13.7240  14.2885  14.2886  14.2952  14.3792  14.3792
    14.3844  16.3492  16.3492  16.4193  16.4193  16.5562  16.5562  16.7464
    16.7955  16.9846  17.2700  17.2700  17.2990  17.3078  17.4247  18.3549
    18.3549  18.5557  18.5557  18.6552  18.6552  18.7463  19.0574  19.1044
    19.6312  19.6467  19.6467  19.6995  19.6995  20.5561  20.5561  21.2323
    21.3259  21.4478  22.0601  22.0601  23.2608  23.2609  23.3965  23.3965
    23.9100  24.0658  24.0658  24.2361  24.7776  25.0810  25.1146  25.1151

     occupation numbers 
     1.0000   1.0000   1.0000   1.0000   1.0000   1.0000   1.0000   1.0000
     1.0000   1.0000   1.0000   1.0000   1.0000   1.0000   1.0000   1.0000
     1.0000   1.0000   1.0000   1.0000   1.0000   1.0000   1.0000   1.0000
     1.0000   1.0000   1.0000   1.0000   1.0000   1.0000   1.0000   1.0000
     1.0000   1.0000   1.0000   1.0000   1.0000   1.0000   1.0000   1.0000
     1.0000   1.0000   1.0000   1.0000   1.0000   1.0000   1.0000   1.0000
     1.0000   1.0000   1.0000   1.0000   1.0000   1.0000   1.0000   1.0000
     1.0000   1.0000   1.0000   1.0000   1.0000   1.0000   1.0000   1.0000
     1.0000   1.0000   1.0000   1.0000   1.0000   1.0000   1.0000   1.0000
     1.0000   1.0000   1.0000   1.0000   1.0000   1.0000   1.0000   1.0000
     1.0000   1.0000   1.0000   1.0000   1.0000   1.0000   1.0000   1.0000
     1.0000   1.0000   1.0000   1.0000   1.0000   1.0000   1.0000   1.0000
     1.0000   1.0000   1.0000   1.0000   1.0000   1.0000   1.0000   1.0000
     1.0000   1.0000   1.0000   1.0000   1.0000   1.0000   1.0000   1.0000
     1.0000   1.0000   1.0000   1.0000   1.0000   1.0000   1.0000   1.0000
     1.0000   1.0000   1.0000   1.0000   1.0000   1.0000   1.0000   1.0000
     1.0000   1.0000   1.0000   1.0000   1.0000   1.0000   1.0000   1.0000
     1.0000   1.0000   1.0000   1.0000   1.0000   1.0000   1.0000   1.0000
     1.0000   1.0000   1.0000   0.0538   0.0538   0.0467   0.0054   0.0054
     0.0046   0.0000   0.0000   0.0000   0.0000   0.0000   0.0000   0.0000
     0.0000   0.0000   0.0000   0.0000   0.0000   0.0000   0.0000   0.0000
     0.0000   0.0000   0.0000   0.0000   0.0000   0.0000   0.0000   0.0000
     0.0000   0.0000   0.0000   0.0000   0.0000   0.0000   0.0000   0.0000
     0.0000   0.0000   0.0000   0.0000   0.0000   0.0000   0.0000   0.0000
     0.0000   0.0000   0.0000   0.0000   0.0000   0.0000   0.0000   0.0000

          k = 0.0000-0.5774 0.0000 (  1352 PWs)   bands (ev):

  -120.7858-120.6310-120.5315-120.4661-120.4020-119.7790 -61.0467 -60.6889
   -60.4298 -60.4054 -60.3906 -60.2950 -60.0542 -59.9517 -59.9091 -59.7392
   -59.6350 -59.5950 -59.4288 -59.3235 -59.0566 -58.9145 -58.3110 -57.1300
   -12.5833 -12.5141 -12.4654 -12.4585 -12.4282 -12.3771 -12.2250 -12.2105
   -12.1855 -12.1777 -12.1716 -12.1319 -12.0797 -12.0552 -11.9741 -11.9620
   -11.9438 -11.9212 -10.0630 -10.0318 -10.0292  -9.9672  -9.9546  -9.9277
    -9.9193  -9.9083  -9.8927  -9.8910  -9.8449  -9.8283  -9.8247  -9.7738
    -9.7603  -9.7597  -9.7563  -9.7200  -9.6906  -9.5266  -9.5061  -9.4988
    -9.4868  -9.4777  -9.4569  -9.4489  -9.3902  -9.3594  -9.2970  -8.9588
     2.0717   2.1971   2.2433   2.4841   2.4937   2.7204   5.6608   6.2663
     6.3454   6.4882   6.5698   6.5881   6.9964   7.0539   7.0673   7.1365
     7.2403   7.5348   7.7670   7.8125   7.8242   7.8790   8.0122   8.1770
     8.4219   8.5314   8.6219   8.6544   8.8270   8.9320   8.9749   9.0048
     9.2630   9.2905   9.3308   9.3713   9.4058   9.4239   9.5215   9.5595
     9.6597   9.7508  10.0343  10.1770  10.3152  10.3938  10.4129  10.4500
    10.4674  10.5461  10.5599  10.9232  10.9359  10.9487  11.1776  11.2314
    11.3271  11.5305  11.6397  11.6703  12.3215  12.3900  12.4503  12.5076
    12.5670  12.7786  13.1623  13.1962  13.3137  13.5706  13.6563  13.9346
    14.0148  14.0695  14.0764  14.1126  14.4573  14.6436  14.8458  14.9222
    15.0532  15.3569  15.3797  15.4685  15.5511  15.8065  16.0152  16.1620
    16.2601  16.4586  16.5973  16.6967  16.7876  17.2646  17.3106  17.6691
    17.7129  17.7538  17.8693  18.9730  18.9955  19.0889  19.1760  19.3838
    19.4469  19.4794  19.6539  19.7007  19.9835  20.0649  20.2318  20.3434
    20.4777  21.5577  23.0273  23.2942  23.3740  23.9876  24.0862  24.3571
    24.4032  24.4830  24.8352  24.8942  24.9625  25.0560  25.3065  25.4252

     occupation numbers 
     1.0000   1.0000   1.0000   1.0000   1.0000   1.0000   1.0000   1.0000
     1.0000   1.0000   1.0000   1.0000   1.0000   1.0000   1.0000   1.0000
     1.0000   1.0000   1.0000   1.0000   1.0000   1.0000   1.0000   1.0000
     1.0000   1.0000   1.0000   1.0000   1.0000   1.0000   1.0000   1.0000
     1.0000   1.0000   1.0000   1.0000   1.0000   1.0000   1.0000   1.0000
     1.0000   1.0000   1.0000   1.0000   1.0000   1.0000   1.0000   1.0000
     1.0000   1.0000   1.0000   1.0000   1.0000   1.0000   1.0000   1.0000
     1.0000   1.0000   1.0000   1.0000   1.0000   1.0000   1.0000   1.0000
     1.0000   1.0000   1.0000   1.0000   1.0000   1.0000   1.0000   1.0000
     1.0000   1.0000   1.0000   1.0000   1.0000   1.0000   1.0000   1.0000
     1.0000   1.0000   1.0000   1.0000   1.0000   1.0000   1.0000   1.0000
     1.0000   1.0000   1.0000   1.0000   1.0000   1.0000   1.0000   1.0000
     1.0000   1.0000   1.0000   1.0000   1.0000   1.0000   1.0000   1.0000
     1.0000   1.0000   1.0000   1.0000   1.0000   1.0000   1.0000   1.0000
     1.0000   1.0000   1.0000   1.0000   1.0000   1.0000   1.0000   1.0000
     1.0000   1.0000   1.0000   1.0000   1.0000   1.0000   1.0000   1.0000
     1.0000   1.0000   1.0000   1.0000   1.0000   1.0000   1.0000   1.0000
     1.0000   1.0000   1.0000   1.0000   1.0000   1.0000   1.0000   0.9808
     0.8917   0.7479   0.7245   0.5867   0.0004   0.0000   0.0000   0.0000
     0.0000   0.0000   0.0000   0.0000   0.0000   0.0000   0.0000   0.0000
     0.0000   0.0000   0.0000   0.0000   0.0000   0.0000   0.0000   0.0000
     0.0000   0.0000   0.0000   0.0000   0.0000   0.0000   0.0000   0.0000
     0.0000   0.0000   0.0000   0.0000   0.0000   0.0000   0.0000   0.0000
     0.0000   0.0000   0.0000   0.0000   0.0000   0.0000   0.0000   0.0000
     0.0000   0.0000   0.0000   0.0000   0.0000   0.0000   0.0000   0.0000

     the Fermi energy is    14.1337 ev

!    total energy              =   -2976.23881150 Ry
     estimated scf accuracy    <       0.00047522 Ry
     smearing contrib. (-TS)   =      -0.01475361 Ry
     internal energy E=F+TS    =   -2976.22405789 Ry

     The total energy is F=E-TS. E is the sum of the following terms:
     one-electron contribution =    -841.06102382 Ry
     hartree contribution      =     533.08102879 Ry
     xc contribution           =    -640.59492114 Ry
     ewald contribution        =   -2027.64914172 Ry

     total magnetization       =     0.02 Bohr mag/cell
     absolute magnetization    =     0.81 Bohr mag/cell

     convergence has been achieved in  19 iterations

     Writing output data file /home/aldair1809/Documentos/QE/4BFO/UHUBBARD/temp/pseudo_o_pbe_v1.2.uspp.F.UPF_ecutwfc_10.in/bifeo3-scf.save/

     init_run     :      2.24s CPU      2.30s WALL (       1 calls)
     electrons    :    139.51s CPU    144.39s WALL (       1 calls)

     Called by init_run:
     wfcinit      :      1.92s CPU      1.96s WALL (       1 calls)
     wfcinit:atom :      0.00s CPU      0.00s WALL (       4 calls)
     wfcinit:wfcr :      1.89s CPU      1.93s WALL (       4 calls)
     potinit      :      0.04s CPU      0.05s WALL (       1 calls)
     hinit0       :      0.19s CPU      0.19s WALL (       1 calls)

     Called by electrons:
     c_bands      :    128.10s CPU    132.66s WALL (      19 calls)
     sum_band     :      9.75s CPU     10.05s WALL (      19 calls)
     v_of_rho     :      0.20s CPU      0.21s WALL (      20 calls)
     v_h          :      0.00s CPU      0.01s WALL (      20 calls)
     v_xc         :      0.20s CPU      0.21s WALL (      20 calls)
     newd         :      1.49s CPU      1.52s WALL (      20 calls)
     mix_rho      :      0.04s CPU      0.04s WALL (      19 calls)

     Called by c_bands:
     init_us_2    :      0.21s CPU      0.22s WALL (     156 calls)
     ccgdiagg     :     97.90s CPU    101.92s WALL (      76 calls)
     wfcrot       :     31.86s CPU     32.43s WALL (      76 calls)

     Called by sum_band:
     sum_band:wei :      0.01s CPU      0.01s WALL (      19 calls)
     sum_band:loo :      8.14s CPU      8.43s WALL (      19 calls)
     sum_band:buf :      0.04s CPU      0.04s WALL (      76 calls)
     sum_band:ini :      0.10s CPU      0.10s WALL (      76 calls)
     sum_band:cal :      6.21s CPU      6.28s WALL (      76 calls)
     sum_band:bec :      0.30s CPU      0.30s WALL (      76 calls)
     addusdens    :      1.49s CPU      1.50s WALL (      19 calls)
     addusd:skk   :      0.01s CPU      0.01s WALL (      76 calls)
     addusd:dgemm :      0.65s CPU      0.66s WALL (     152 calls)
     addusd:qvan2 :      0.81s CPU      0.81s WALL (     152 calls)

     Called by *cgdiagg:
     h_psi        :     58.41s CPU     61.44s WALL (   34168 calls)
     s_psi        :     36.57s CPU     37.40s WALL (   68260 calls)

     Called by h_psi:
     h_psi:calbec :     23.37s CPU     24.74s WALL (   34168 calls)
     vloc_psi     :     13.15s CPU     14.02s WALL (   34168 calls)
     add_vuspsi   :     21.46s CPU     22.28s WALL (   34168 calls)
     hs_1psi      :     57.88s CPU     60.66s WALL (   34092 calls)
     s_1psi       :     30.28s CPU     31.30s WALL (   34092 calls)

     General routines
     calbec       :     44.35s CPU     46.41s WALL (   68336 calls)
     fft          :      0.08s CPU      0.09s WALL (     418 calls)
     ffts         :      0.01s CPU      0.01s WALL (      38 calls)
     fftw         :     12.91s CPU     13.88s WALL (  113816 calls)

     Parallel routines
     fft_scatt_xy :      1.41s CPU      1.50s WALL (  114272 calls)
     fft_scatt_yz :      3.23s CPU      3.49s WALL (  114272 calls)

     PWSCF        :   2m22.13s CPU   2m27.11s WALL


   This run was terminated on:  21: 2:46  28Sep2024            

=------------------------------------------------------------------------------=
   JOB DONE.
=------------------------------------------------------------------------------=
