
     Program PWSCF v.6.7MaX starts on 28Sep2024 at 21:29:35 

     This program is part of the open-source Quantum ESPRESSO suite
     for quantum simulation of materials; please cite
         "P. Giannozzi et al., J. Phys.:Condens. Matter 21 395502 (2009);
         "P. Giannozzi et al., J. Phys.:Condens. Matter 29 465901 (2017);
          URL http://www.quantum-espresso.org", 
     in publications or presentations arising from this work. More details at
     http://www.quantum-espresso.org/quote

     Parallel version (MPI), running on     4 processors

     MPI processes distributed on     1 nodes
     R & G space division:  proc/nbgrp/npool/nimage =       4
     Waiting for input...
     Reading input from standard input

     Current dimensions of program PWSCF are:
     Max number of different atomic species (ntypx) = 10
     Max number of k-points (npk) =  40000
     Max angular momentum in pseudopotentials (lmaxx) =  3
     Message from routine iosys:
     wrong startingpot: use default (1)

     Subspace diagonalization in iterative solution of the eigenvalue problem:
     one sub-group per band group will be used
     scalapack distributed-memory algorithm (size of sub-group:  2*  2 procs)

     Message from routine setup:
     using ibrav=0 with symmetry is DISCOURAGED, use correct ibrav instead

     Parallelization info
     --------------------
     sticks:   dense  smooth     PW     G-vecs:    dense   smooth      PW
     Min          77      77     22                 2723     2723     455
     Max          79      79     23                 2727     2727     457
     Sum         313     313     91                10901    10901    1823



     bravais-lattice index     =            0
     lattice parameter (alat)  =      10.5468  a.u.
     unit-cell volume          =    2535.5110 (a.u.)^3
     number of atoms/cell      =           30
     number of atomic types    =            4
     number of electrons       =       294.00
     number of Kohn-Sham states=          200
     kinetic-energy cutoff     =      10.0000  Ry
     charge density cutoff     =      40.0000  Ry
     scf convergence threshold =      1.0E-03
     mixing beta               =       0.2000
     number of iterations used =            8  plain     mixing
     Exchange-correlation= SLA  PW   PSX  PSC
                           (   1   4  10   8   0   0   0)

     celldm(1)=  10.546849  celldm(2)=   0.000000  celldm(3)=   0.000000
     celldm(4)=   0.000000  celldm(5)=   0.000000  celldm(6)=   0.000000

     crystal axes: (cart. coord. in units of alat)
               a(1) = (   1.000000  -0.000000  -0.000000 )  
               a(2) = (  -0.500000   0.866025  -0.000000 )  
               a(3) = (   0.000000  -0.000000   2.495552 )  

     reciprocal axes: (cart. coord. in units 2 pi/alat)
               b(1) = (  1.000000  0.577350  0.000000 )  
               b(2) = (  0.000000  1.154701  0.000000 )  
               b(3) = (  0.000000  0.000000  0.400713 )  


     PseudoPot. # 1 for O  read from file:
     /home/aldair1809/Programas/QE/q-e-qe-7.3/pseudo/o_pbesol_v1.2.uspp.F.UPF
     MD5 check sum: 501638753501ef6325af9037351f7734
     Pseudo is Ultrasoft + core correction, Zval =  6.0
     Generated by new atomic code, or converted to UPF format
     Using radial grid of  737 points,  5 beta functions with: 
                l(1) =   0
                l(2) =   0
                l(3) =   1
                l(4) =   1
                l(5) =   2
     Q(r) pseudized with  8 coefficients,  rinner =    0.900   0.900   0.900
                                                       0.900   0.900

     PseudoPot. # 2 for Bi read from file:
     /home/aldair1809/Programas/QE/q-e-qe-7.3/pseudo/bi_pbesol_v1.uspp.F.UPF
     MD5 check sum: 588b87649a5c12ad5a0392deab1dcc00
     Pseudo is Ultrasoft + core correction, Zval = 15.0
     Generated by new atomic code, or converted to UPF format
     Using radial grid of  899 points,  6 beta functions with: 
                l(1) =   0
                l(2) =   0
                l(3) =   1
                l(4) =   1
                l(5) =   2
                l(6) =   2
     Q(r) pseudized with  6 coefficients,  rinner =    1.000   1.000   1.000
                                                       1.000   1.000

     PseudoPot. # 3 for Fe read from file:
     /home/aldair1809/Programas/QE/q-e-qe-7.3/pseudo/fe_pbesol_v1.5.uspp.F.UPF
     MD5 check sum: a3f38e9a1a818e424be8f97771a26c64
     Pseudo is Ultrasoft + core correction, Zval = 16.0
     Generated by new atomic code, or converted to UPF format
     Using radial grid of  861 points,  6 beta functions with: 
                l(1) =   0
                l(2) =   0
                l(3) =   1
                l(4) =   1
                l(5) =   2
                l(6) =   2
     Q(r) pseudized with  8 coefficients,  rinner =    1.000   1.000   1.000
                                                       1.000   1.000

     PseudoPot. # 4 for Fe read from file:
     /home/aldair1809/Programas/QE/q-e-qe-7.3/pseudo/fe_pbesol_v1.5.uspp.F.UPF
     MD5 check sum: a3f38e9a1a818e424be8f97771a26c64
     Pseudo is Ultrasoft + core correction, Zval = 16.0
     Generated by new atomic code, or converted to UPF format
     Using radial grid of  861 points,  6 beta functions with: 
                l(1) =   0
                l(2) =   0
                l(3) =   1
                l(4) =   1
                l(5) =   2
                l(6) =   2
     Q(r) pseudized with  8 coefficients,  rinner =    1.000   1.000   1.000
                                                       1.000   1.000

     atomic species   valence    mass     pseudopotential
        O              6.00    15.99940     O ( 1.00)
        Bi            15.00   208.98040     Bi( 1.00)
        Fe1           16.00    55.84500     Fe( 1.00)
        Fe2           16.00    55.84500     Fe( 1.00)

     Starting magnetic structure 
     atomic species   magnetization
        O            0.000
        Bi           0.000
        Fe1         -0.800
        Fe2          0.800

      3 Sym. Ops. (no inversion) found


                                    s                        frac. trans.

      isym =  1     identity                                     

 cryst.   s( 1) = (     1          0          0      )
                  (     0          1          0      )
                  (     0          0          1      )

 cart.    s( 1) = (  1.0000000 -0.0000000  0.0000000 )
                  (  0.0000000  1.0000000  0.0000000 )
                  (  0.0000000  0.0000000  1.0000000 )


      isym =  2     120 deg rotation - cryst. axis [0,0,1]       

 cryst.   s( 2) = (     0          1          0      )
                  (    -1         -1          0      )
                  (     0          0          1      )

 cart.    s( 2) = ( -0.5000000 -0.8660254  0.0000000 )
                  (  0.8660254 -0.5000000  0.0000000 )
                  (  0.0000000  0.0000000  1.0000000 )


      isym =  3     120 deg rotation - cryst. axis [0,0,-1]      

 cryst.   s( 3) = (    -1         -1          0      )
                  (     1          0          0      )
                  (     0          0          1      )

 cart.    s( 3) = ( -0.5000000  0.8660254  0.0000000 )
                  ( -0.8660254 -0.5000000  0.0000000 )
                  (  0.0000000  0.0000000  1.0000000 )


   Cartesian axes

     site n.     atom                  positions (alat units)
         1           Fe1 tau(   1) = (   0.0000000   0.0000000   1.9384582  )
         2           Fe1 tau(   2) = (  -0.0000005   0.5773506   2.3615556  )
         3           Fe1 tau(   3) = (   0.5000005   0.2886748   1.5200787  )
         4           Fe2 tau(   4) = (   0.5000005   0.2886748   0.2722626  )
         5           Fe2 tau(   5) = (   0.0000000   0.0000000   0.6907071  )
         6           Fe2 tau(   6) = (  -0.0000005   0.5773506   1.1137452  )
         7           Bi  tau(   7) = (   0.5000005   0.2886748   2.0843143  )
         8           Bi  tau(   8) = (  -0.0000005   0.5773506   1.6713980  )
         9           Bi  tau(   9) = (  -0.0000005   0.5773506   0.4235448  )
        10           Bi  tau(  10) = (   0.0000000   0.0000000   0.0002821  )
        11           Bi  tau(  11) = (   0.0000000   0.0000000   1.2481025  )
        12           Bi  tau(  12) = (   0.5000005   0.2886748   0.8364865  )
        13           O   tau(  13) = (  -0.3105904   0.6551932   2.2011299  )
        14           O   tau(  14) = (   0.0878817   0.2694488   2.2011299  )
        15           O   tau(  15) = (   0.2227102   0.8074080   2.2011299  )
        16           O   tau(  16) = (   0.4087504   0.5589755   1.7846473  )
        17           O   tau(  17) = (   0.3115373   0.0745013   1.7846473  )
        18           O   tau(  18) = (   0.7797108   0.2325494   1.7846473  )
        19           O   tau(  19) = (   0.6884743   0.0745026   0.5368244  )
        20           O   tau(  20) = (   0.5912412   0.5589858   0.5368244  )
        21           O   tau(  21) = (   0.2202830   0.2325379   0.5368244  )
        22           O   tau(  22) = (  -0.0823010   0.8482993   0.1166193  )
        23           O   tau(  23) = (  -0.1934983   0.3706010   0.1166193  )
        24           O   tau(  24) = (   0.2757993   0.5131505   0.1166193  )
        25           O   tau(  25) = (   0.1934855   0.3705936   1.3644430  )
        26           O   tau(  26) = (   0.0823138   0.8482919   1.3644430  )
        27           O   tau(  27) = (  -0.2757993   0.5131653   1.3644430  )
        28           O   tau(  28) = (  -0.0878870   0.2694458   0.9533686  )
        29           O   tau(  29) = (   0.3105971   0.6551893   0.9533686  )
        30           O   tau(  30) = (  -0.2227086   0.8074149   0.9533686  )

   Crystallographic axes

     site n.     atom                  positions (cryst. coord.)
         1           Fe1 tau(   1) = (  0.0000000  0.0000000  0.7767652  )
         2           Fe1 tau(   2) = (  0.3333330  0.6666670  0.9463058  )
         3           Fe1 tau(   3) = (  0.6666670  0.3333330  0.6091152  )
         4           Fe2 tau(   4) = (  0.6666670  0.3333330  0.1090991  )
         5           Fe2 tau(   5) = (  0.0000000  0.0000000  0.2767753  )
         6           Fe2 tau(   6) = (  0.3333330  0.6666670  0.4462921  )
         7           Bi  tau(   7) = (  0.6666670  0.3333330  0.8352117  )
         8           Bi  tau(   8) = (  0.3333330  0.6666670  0.6697508  )
         9           Bi  tau(   9) = (  0.3333330  0.6666670  0.1697199  )
        10           Bi  tau(  10) = (  0.0000000  0.0000000  0.0001130  )
        11           Bi  tau(  11) = (  0.0000000  0.0000000  0.5001308  )
        12           Bi  tau(  12) = (  0.6666670  0.3333330  0.3351910  )
        13           O   tau(  13) = (  0.0676856  0.7565520  0.8820212  )
        14           O   tau(  14) = (  0.2434480  0.3111326  0.8820212  )
        15           O   tau(  15) = (  0.6888674  0.9323144  0.8820212  )
        16           O   tau(  16) = (  0.7314750  0.6454493  0.7151312  )
        17           O   tau(  17) = (  0.3545507  0.0860267  0.7151312  )
        18           O   tau(  18) = (  0.9139733  0.2685250  0.7151312  )
        19           O   tau(  19) = (  0.7314884  0.0860282  0.2151125  )
        20           O   tau(  20) = (  0.9139718  0.6454612  0.2151125  )
        21           O   tau(  21) = (  0.3545388  0.2685116  0.2151125  )
        22           O   tau(  22) = (  0.4074649  0.9795317  0.0467309  )
        23           O   tau(  23) = (  0.0204683  0.4279331  0.0467309  )
        24           O   tau(  24) = (  0.5720669  0.5925351  0.0467309  )
        25           O   tau(  25) = (  0.4074478  0.4279246  0.5467499  )
        26           O   tau(  26) = (  0.5720754  0.9795232  0.5467499  )
        27           O   tau(  27) = (  0.0204768  0.5925522  0.5467499  )
        28           O   tau(  28) = (  0.0676775  0.3111292  0.3820271  )
        29           O   tau(  29) = (  0.6888708  0.7565474  0.3820271  )
        30           O   tau(  30) = (  0.2434526  0.9323225  0.3820271  )

     number of k points=     2  Gaussian smearing, width (Ry)=  0.0100
                       cart. coord. in units 2pi/alat
        k(    1) = (   0.0000000   0.0000000   0.0000000), wk =   0.2500000
        k(    2) = (   0.0000000  -0.5773503   0.0000000), wk =   0.7500000

                       cryst. coord.
        k(    1) = (   0.0000000   0.0000000   0.0000000), wk =   0.2500000
        k(    2) = (   0.0000000  -0.5000000   0.0000000), wk =   0.7500000

     Dense  grid:    10901 G-vectors     FFT dimensions: (  24,  24,  54)

     Dynamical RAM for                 wfc:       1.03 MB

     Dynamical RAM for     wfc (w. buffer):       5.16 MB

     Dynamical RAM for           str. fact:       0.17 MB

     Dynamical RAM for           local pot:       0.00 MB

     Dynamical RAM for          nlocal pot:       2.32 MB

     Dynamical RAM for                qrad:       2.04 MB

     Dynamical RAM for          rho,v,vnew:       0.62 MB

     Dynamical RAM for               rhoin:       0.21 MB

     Dynamical RAM for            rho*nmix:       1.33 MB

     Dynamical RAM for           G-vectors:       0.18 MB

     Dynamical RAM for          h,s,v(r/c):       0.46 MB

     Dynamical RAM for          <psi|beta>:       1.37 MB

     Dynamical RAM for      wfcinit/wfcrot:       3.06 MB

     Dynamical RAM for           addusdens:       8.52 MB

     Estimated static dynamical RAM per process >      12.59 MB

     Estimated max dynamical RAM per process >      21.11 MB

     Estimated total dynamical RAM >      84.45 MB

     Check: negative core charge=   -0.006733
     Generating pointlists ...
     new r_m :   0.1458 (alat units)  1.5374 (a.u.) for type    1
     new r_m :   0.1687 (alat units)  1.7788 (a.u.) for type    2
     new r_m :   0.1458 (alat units)  1.5374 (a.u.) for type    3
     new r_m :   0.1458 (alat units)  1.5374 (a.u.) for type    4

     Initial potential from superposition of free atoms

     starting charge  281.99971, renormalised to  294.00000

     negative rho (up, down):  3.338E-01 3.338E-01
     Starting wfcs are  204 randomized atomic wfcs

     total cpu time spent up to now is        2.9 secs

     Self-consistent Calculation

     iteration #  1     ecut=    10.00 Ry     beta= 0.20
     CG style diagonalization
     ethr =  1.00E-02,  avg # of iterations =  4.1

     negative rho (up, down):  1.576E-01 1.576E-01

     total cpu time spent up to now is       15.9 secs

     total energy              =   -3002.27603134 Ry
     estimated scf accuracy    <     250.02388356 Ry

     total magnetization       =     0.01 Bohr mag/cell
     absolute magnetization    =     4.67 Bohr mag/cell

     iteration #  2     ecut=    10.00 Ry     beta= 0.20
     CG style diagonalization
     ethr =  1.00E-02,  avg # of iterations =  3.7

     negative rho (up, down):  1.054E-01 1.052E-01

     total cpu time spent up to now is       26.4 secs

     total energy              =   -2972.72963641 Ry
     estimated scf accuracy    <     102.14748602 Ry

     total magnetization       =    -0.37 Bohr mag/cell
     absolute magnetization    =    16.92 Bohr mag/cell

     iteration #  3     ecut=    10.00 Ry     beta= 0.20
     CG style diagonalization
     ethr =  1.00E-02,  avg # of iterations =  3.5

     negative rho (up, down):  9.689E-02 9.650E-02

     total cpu time spent up to now is       36.3 secs

     total energy              =   -2969.64085228 Ry
     estimated scf accuracy    <      31.43848062 Ry

     total magnetization       =     0.11 Bohr mag/cell
     absolute magnetization    =    16.68 Bohr mag/cell

     iteration #  4     ecut=    10.00 Ry     beta= 0.20
     CG style diagonalization
     ethr =  1.00E-02,  avg # of iterations =  3.0

     negative rho (up, down):  9.538E-02 9.513E-02

     total cpu time spent up to now is       44.8 secs

     total energy              =   -2969.19840454 Ry
     estimated scf accuracy    <      34.82239038 Ry

     total magnetization       =     1.47 Bohr mag/cell
     absolute magnetization    =    13.12 Bohr mag/cell

     iteration #  5     ecut=    10.00 Ry     beta= 0.20
     CG style diagonalization
     ethr =  1.00E-02,  avg # of iterations =  3.0

     negative rho (up, down):  9.259E-02 9.241E-02

     total cpu time spent up to now is       53.3 secs

     total energy              =   -2970.73495422 Ry
     estimated scf accuracy    <      21.23980143 Ry

     total magnetization       =    -0.56 Bohr mag/cell
     absolute magnetization    =    12.26 Bohr mag/cell

     iteration #  6     ecut=    10.00 Ry     beta= 0.20
     CG style diagonalization
     ethr =  7.22E-03,  avg # of iterations =  3.0

     negative rho (up, down):  9.208E-02 9.191E-02

     total cpu time spent up to now is       61.7 secs

     total energy              =   -2971.64190888 Ry
     estimated scf accuracy    <       1.87483027 Ry

     total magnetization       =     0.25 Bohr mag/cell
     absolute magnetization    =    10.21 Bohr mag/cell

     iteration #  7     ecut=    10.00 Ry     beta= 0.20
     CG style diagonalization
     ethr =  6.38E-04,  avg # of iterations =  3.7

     negative rho (up, down):  9.263E-02 9.253E-02

     total cpu time spent up to now is       72.3 secs

     total energy              =   -2971.76129623 Ry
     estimated scf accuracy    <       0.79382155 Ry

     total magnetization       =     0.19 Bohr mag/cell
     absolute magnetization    =     8.83 Bohr mag/cell

     iteration #  8     ecut=    10.00 Ry     beta= 0.20
     CG style diagonalization
     ethr =  2.70E-04,  avg # of iterations =  3.1

     negative rho (up, down):  9.301E-02 9.294E-02

     total cpu time spent up to now is       81.1 secs

     total energy              =   -2971.72198237 Ry
     estimated scf accuracy    <       2.66707646 Ry

     total magnetization       =     0.11 Bohr mag/cell
     absolute magnetization    =     7.27 Bohr mag/cell

     iteration #  9     ecut=    10.00 Ry     beta= 0.20
     CG style diagonalization
     ethr =  2.70E-04,  avg # of iterations =  3.0

     negative rho (up, down):  9.365E-02 9.363E-02

     total cpu time spent up to now is       89.6 secs

     total energy              =   -2971.83173251 Ry
     estimated scf accuracy    <       0.46993995 Ry

     total magnetization       =     0.04 Bohr mag/cell
     absolute magnetization    =     6.81 Bohr mag/cell

     iteration # 10     ecut=    10.00 Ry     beta= 0.20
     CG style diagonalization
     ethr =  1.60E-04,  avg # of iterations =  3.0

     negative rho (up, down):  9.374E-02 9.374E-02

     total cpu time spent up to now is       98.0 secs

     total energy              =   -2971.87421746 Ry
     estimated scf accuracy    <       0.10028886 Ry

     total magnetization       =     0.06 Bohr mag/cell
     absolute magnetization    =     5.74 Bohr mag/cell

     iteration # 11     ecut=    10.00 Ry     beta= 0.20
     CG style diagonalization
     ethr =  3.41E-05,  avg # of iterations =  3.1

     negative rho (up, down):  9.360E-02 9.360E-02

     total cpu time spent up to now is      107.0 secs

     total energy              =   -2971.88919351 Ry
     estimated scf accuracy    <       0.08308062 Ry

     total magnetization       =    -0.04 Bohr mag/cell
     absolute magnetization    =     4.86 Bohr mag/cell

     iteration # 12     ecut=    10.00 Ry     beta= 0.20
     CG style diagonalization
     ethr =  2.83E-05,  avg # of iterations =  3.0

     negative rho (up, down):  9.323E-02 9.322E-02

     total cpu time spent up to now is      115.7 secs

     total energy              =   -2971.90492147 Ry
     estimated scf accuracy    <       0.03728053 Ry

     total magnetization       =     0.10 Bohr mag/cell
     absolute magnetization    =     4.51 Bohr mag/cell

     iteration # 13     ecut=    10.00 Ry     beta= 0.20
     CG style diagonalization
     ethr =  1.27E-05,  avg # of iterations =  3.0

     negative rho (up, down):  9.270E-02 9.270E-02

     total cpu time spent up to now is      124.1 secs

     total energy              =   -2971.92226356 Ry
     estimated scf accuracy    <       0.01835593 Ry

     total magnetization       =     0.06 Bohr mag/cell
     absolute magnetization    =     3.95 Bohr mag/cell

     iteration # 14     ecut=    10.00 Ry     beta= 0.20
     CG style diagonalization
     ethr =  6.24E-06,  avg # of iterations =  3.1

     negative rho (up, down):  9.256E-02 9.256E-02

     total cpu time spent up to now is      132.9 secs

     total energy              =   -2971.93373817 Ry
     estimated scf accuracy    <       0.00544497 Ry

     total magnetization       =     0.01 Bohr mag/cell
     absolute magnetization    =     2.82 Bohr mag/cell

     iteration # 15     ecut=    10.00 Ry     beta= 0.20
     CG style diagonalization
     c_bands:  1 eigenvalues not converged
     ethr =  1.85E-06,  avg # of iterations =  3.2

     negative rho (up, down):  9.249E-02 9.250E-02

     total cpu time spent up to now is      141.9 secs

     total energy              =   -2971.93896562 Ry
     estimated scf accuracy    <       0.00394806 Ry

     total magnetization       =     0.05 Bohr mag/cell
     absolute magnetization    =     2.16 Bohr mag/cell

     iteration # 16     ecut=    10.00 Ry     beta= 0.20
     CG style diagonalization
     ethr =  1.34E-06,  avg # of iterations =  3.0

     negative rho (up, down):  9.243E-02 9.244E-02

     total cpu time spent up to now is      150.4 secs

     total energy              =   -2971.94189144 Ry
     estimated scf accuracy    <       0.00712504 Ry

     total magnetization       =    -0.02 Bohr mag/cell
     absolute magnetization    =     1.50 Bohr mag/cell

     iteration # 17     ecut=    10.00 Ry     beta= 0.20
     CG style diagonalization
     ethr =  1.34E-06,  avg # of iterations =  3.0

     negative rho (up, down):  9.262E-02 9.262E-02

     Magnetic moment per site:
     atom:    1    charge:   11.4791    magn:   -0.0555    constr:    0.0000
     atom:    2    charge:   11.4482    magn:   -0.1202    constr:    0.0000
     atom:    3    charge:   11.4620    magn:   -0.1113    constr:    0.0000
     atom:    4    charge:   11.4631    magn:    0.1127    constr:    0.0000
     atom:    5    charge:   11.4785    magn:    0.0584    constr:    0.0000
     atom:    6    charge:   11.4502    magn:    0.1213    constr:    0.0000
     atom:    7    charge:   10.3270    magn:   -0.0046    constr:    0.0000
     atom:    8    charge:   10.3417    magn:   -0.0010    constr:    0.0000
     atom:    9    charge:   10.3412    magn:    0.0012    constr:    0.0000
     atom:   10    charge:   10.3137    magn:    0.0003    constr:    0.0000
     atom:   11    charge:   10.3134    magn:   -0.0002    constr:    0.0000
     atom:   12    charge:   10.3268    magn:    0.0047    constr:    0.0000
     atom:   13    charge:    4.9869    magn:    0.0020    constr:    0.0000
     atom:   14    charge:    4.9869    magn:    0.0020    constr:    0.0000
     atom:   15    charge:    4.9869    magn:    0.0020    constr:    0.0000
     atom:   16    charge:    4.9878    magn:    0.0021    constr:    0.0000
     atom:   17    charge:    4.9878    magn:    0.0021    constr:    0.0000
     atom:   18    charge:    4.9878    magn:    0.0021    constr:    0.0000
     atom:   19    charge:    4.9875    magn:   -0.0020    constr:    0.0000
     atom:   20    charge:    4.9875    magn:   -0.0020    constr:    0.0000
     atom:   21    charge:    4.9875    magn:   -0.0020    constr:    0.0000
     atom:   22    charge:    4.9915    magn:    0.0098    constr:    0.0000
     atom:   23    charge:    4.9915    magn:    0.0098    constr:    0.0000
     atom:   24    charge:    4.9915    magn:    0.0098    constr:    0.0000
     atom:   25    charge:    4.9915    magn:   -0.0096    constr:    0.0000
     atom:   26    charge:    4.9915    magn:   -0.0096    constr:    0.0000
     atom:   27    charge:    4.9915    magn:   -0.0096    constr:    0.0000
     atom:   28    charge:    4.9870    magn:   -0.0020    constr:    0.0000
     atom:   29    charge:    4.9870    magn:   -0.0020    constr:    0.0000
     atom:   30    charge:    4.9870    magn:   -0.0020    constr:    0.0000

     total cpu time spent up to now is      158.8 secs

     End of self-consistent calculation

 ------ SPIN UP ------------


          k = 0.0000 0.0000 0.0000 (  1371 PWs)   bands (ev):

  -123.4900-120.8116-120.6623-120.6610-120.6031-117.9949 -66.4901 -66.4900
   -65.5589 -62.2375 -62.2375 -62.0272 -62.0271 -60.6710 -60.5751 -60.0108
   -60.0108 -59.8874 -59.8874 -56.1378 -55.9431 -54.8281 -54.8281 -53.9144
   -12.8505 -12.7060 -12.6116 -12.2468 -12.2330 -12.2330 -12.1993 -12.1993
   -12.1338 -12.1276 -12.1275 -12.0997 -12.0996 -12.0020 -11.9826 -11.9825
   -11.8852 -11.8851 -10.5998 -10.5998 -10.5000 -10.2159 -10.2159 -10.1774
   -10.1774 -10.1147 -10.1147 -10.0883 -10.0883 -10.0641 -10.0641  -9.9044
    -9.8486  -9.6539  -9.6539  -9.6427  -9.6426  -9.4828  -9.4539  -9.3479
    -9.3479  -9.2523  -9.2522  -9.2327  -9.2327  -8.9267  -8.6182  -8.6182
     1.9213   2.0416   2.1375   2.7031   2.7594   3.2856   3.8347   3.8347
     4.2205   5.0837   5.8137   5.8393   6.1333   6.1333   6.5508   6.5508
     6.5964   6.5964   7.1170   7.1170   7.1522   7.1522   7.2498   7.3510
     7.4368   7.4368   7.7619   7.8622   7.8622   7.9281   7.9281   8.0680
     8.4968   8.6525   8.7894   8.7894   8.8629   8.8630   9.6598   9.6598
     9.7448   9.8412  10.1344  10.1344  10.1857  10.1857  10.4227  10.4227
    10.8392  11.1001  11.1001  11.1219  11.1219  11.2258  11.2258  11.2395
    11.2541  11.2847  11.3856  11.3856  11.3894  11.5251  11.6089  11.6090
    11.7027  11.7028  11.8752  12.8221  12.8221  13.3275  13.5833  13.5833
    13.6013  13.6999  13.6999  14.2651  14.2651  14.2969  14.3558  14.3558
    14.3863  16.3108  16.3108  16.3742  16.3742  16.5097  16.5097  16.6663
    16.6995  16.9335  17.2247  17.2247  17.2428  17.2753  17.3736  18.2306
    18.2306  18.4630  18.4630  18.5650  18.5650  18.6682  18.9284  18.9722
    19.5553  19.5845  19.5845  19.6388  19.6388  20.4688  20.4688  21.1944
    21.2255  21.3410  21.9911  21.9911  23.1748  23.1748  23.3168  23.3169
    23.7899  24.1108  24.1110  24.1967  24.6912  25.0051  25.0726  25.0728

     occupation numbers 
     1.0000   1.0000   1.0000   1.0000   1.0000   1.0000   1.0000   1.0000
     1.0000   1.0000   1.0000   1.0000   1.0000   1.0000   1.0000   1.0000
     1.0000   1.0000   1.0000   1.0000   1.0000   1.0000   1.0000   1.0000
     1.0000   1.0000   1.0000   1.0000   1.0000   1.0000   1.0000   1.0000
     1.0000   1.0000   1.0000   1.0000   1.0000   1.0000   1.0000   1.0000
     1.0000   1.0000   1.0000   1.0000   1.0000   1.0000   1.0000   1.0000
     1.0000   1.0000   1.0000   1.0000   1.0000   1.0000   1.0000   1.0000
     1.0000   1.0000   1.0000   1.0000   1.0000   1.0000   1.0000   1.0000
     1.0000   1.0000   1.0000   1.0000   1.0000   1.0000   1.0000   1.0000
     1.0000   1.0000   1.0000   1.0000   1.0000   1.0000   1.0000   1.0000
     1.0000   1.0000   1.0000   1.0000   1.0000   1.0000   1.0000   1.0000
     1.0000   1.0000   1.0000   1.0000   1.0000   1.0000   1.0000   1.0000
     1.0000   1.0000   1.0000   1.0000   1.0000   1.0000   1.0000   1.0000
     1.0000   1.0000   1.0000   1.0000   1.0000   1.0000   1.0000   1.0000
     1.0000   1.0000   1.0000   1.0000   1.0000   1.0000   1.0000   1.0000
     1.0000   1.0000   1.0000   1.0000   1.0000   1.0000   1.0000   1.0000
     1.0000   1.0000   1.0000   1.0000   1.0000   1.0000   1.0000   1.0000
     1.0000   1.0000   1.0000   1.0000   1.0000   1.0000   1.0000   1.0000
     1.0000   1.0000   1.0000   0.0550   0.0549   0.0269   0.0055   0.0055
     0.0021   0.0000   0.0000   0.0000   0.0000   0.0000   0.0000   0.0000
     0.0000   0.0000   0.0000   0.0000   0.0000   0.0000   0.0000   0.0000
     0.0000   0.0000   0.0000   0.0000   0.0000   0.0000   0.0000   0.0000
     0.0000   0.0000   0.0000   0.0000   0.0000   0.0000   0.0000   0.0000
     0.0000   0.0000   0.0000   0.0000   0.0000   0.0000   0.0000   0.0000
     0.0000   0.0000   0.0000   0.0000   0.0000   0.0000   0.0000   0.0000

          k = 0.0000-0.5774 0.0000 (  1352 PWs)   bands (ev):

  -120.8126-120.6827-120.5326-120.5061-120.4361-119.8076 -60.9982 -60.6348
   -60.3980 -60.3463 -60.3401 -60.2127 -59.9789 -59.8975 -59.8522 -59.6863
   -59.5752 -59.5431 -59.3668 -59.2456 -58.9823 -58.8541 -58.2461 -57.0614
   -12.5393 -12.4693 -12.4227 -12.4177 -12.3849 -12.3366 -12.1794 -12.1632
   -12.1383 -12.1339 -12.1269 -12.0879 -12.0335 -12.0071 -11.9269 -11.9141
   -11.8942 -11.8727 -10.1010 -10.0708 -10.0674 -10.0066  -9.9944  -9.9663
    -9.9600  -9.9446  -9.9321  -9.9303  -9.8841  -9.8656  -9.8588  -9.8139
    -9.7957  -9.7942  -9.7898  -9.7606  -9.7235  -9.5576  -9.5333  -9.5223
    -9.5135  -9.5097  -9.4823  -9.4694  -9.4109  -9.3780  -9.3146  -8.9821
     1.9589   2.0836   2.1301   2.3718   2.3817   2.6088   5.5355   6.1507
     6.2277   6.3875   6.4665   6.4916   6.9427   6.9893   7.0131   7.0805
     7.1860   7.4819   7.6872   7.7332   7.7535   7.8047   7.9416   8.1136
     8.3647   8.4784   8.5684   8.6028   8.7582   8.8744   8.9056   8.9473
     9.2050   9.2405   9.2742   9.3296   9.3505   9.3739   9.4598   9.5084
     9.5959   9.6906   9.9663  10.1341  10.2747  10.3488  10.3710  10.3980
    10.4236  10.4912  10.5129  10.8754  10.8851  10.9141  11.1221  11.1910
    11.2866  11.4988  11.6034  11.6357  12.3013  12.3637  12.4431  12.4989
    12.5237  12.7433  13.1271  13.1596  13.3107  13.5403  13.6259  13.9143
    13.9784  14.0396  14.0470  14.1015  14.4295  14.5993  14.8297  14.8775
    15.0052  15.3240  15.3550  15.4354  15.5286  15.7813  15.9773  16.1221
    16.2184  16.4304  16.5746  16.6251  16.7164  17.2100  17.2565  17.6152
    17.6726  17.7139  17.8163  18.8973  18.9224  19.0284  19.1094  19.3149
    19.3883  19.4234  19.5887  19.6380  19.8539  19.9401  20.1062  20.2111
    20.3492  21.4749  22.9498  23.2090  23.2877  23.9090  24.0055  24.3376
    24.3450  24.3916  24.7786  24.8358  24.8641  24.9094  25.2748  25.3966

     occupation numbers 
     1.0000   1.0000   1.0000   1.0000   1.0000   1.0000   1.0000   1.0000
     1.0000   1.0000   1.0000   1.0000   1.0000   1.0000   1.0000   1.0000
     1.0000   1.0000   1.0000   1.0000   1.0000   1.0000   1.0000   1.0000
     1.0000   1.0000   1.0000   1.0000   1.0000   1.0000   1.0000   1.0000
     1.0000   1.0000   1.0000   1.0000   1.0000   1.0000   1.0000   1.0000
     1.0000   1.0000   1.0000   1.0000   1.0000   1.0000   1.0000   1.0000
     1.0000   1.0000   1.0000   1.0000   1.0000   1.0000   1.0000   1.0000
     1.0000   1.0000   1.0000   1.0000   1.0000   1.0000   1.0000   1.0000
     1.0000   1.0000   1.0000   1.0000   1.0000   1.0000   1.0000   1.0000
     1.0000   1.0000   1.0000   1.0000   1.0000   1.0000   1.0000   1.0000
     1.0000   1.0000   1.0000   1.0000   1.0000   1.0000   1.0000   1.0000
     1.0000   1.0000   1.0000   1.0000   1.0000   1.0000   1.0000   1.0000
     1.0000   1.0000   1.0000   1.0000   1.0000   1.0000   1.0000   1.0000
     1.0000   1.0000   1.0000   1.0000   1.0000   1.0000   1.0000   1.0000
     1.0000   1.0000   1.0000   1.0000   1.0000   1.0000   1.0000   1.0000
     1.0000   1.0000   1.0000   1.0000   1.0000   1.0000   1.0000   1.0000
     1.0000   1.0000   1.0000   1.0000   1.0000   1.0000   1.0000   1.0000
     1.0000   1.0000   1.0000   1.0000   1.0000   1.0000   1.0000   0.9797
     0.9164   0.7720   0.7481   0.5408   0.0005   0.0000   0.0000   0.0000
     0.0000   0.0000   0.0000   0.0000   0.0000   0.0000   0.0000   0.0000
     0.0000   0.0000   0.0000   0.0000   0.0000   0.0000   0.0000   0.0000
     0.0000   0.0000   0.0000   0.0000   0.0000   0.0000   0.0000   0.0000
     0.0000   0.0000   0.0000   0.0000   0.0000   0.0000   0.0000   0.0000
     0.0000   0.0000   0.0000   0.0000   0.0000   0.0000   0.0000   0.0000
     0.0000   0.0000   0.0000   0.0000   0.0000   0.0000   0.0000   0.0000

 ------ SPIN DOWN ----------


          k = 0.0000 0.0000 0.0000 (  1371 PWs)   bands (ev):

  -123.4887-120.8091-120.6617-120.6596-120.6027-117.9937 -66.4883 -66.4883
   -65.5584 -62.2361 -62.2360 -62.0250 -62.0249 -60.6706 -60.5745 -60.0089
   -60.0089 -59.8859 -59.8859 -56.1378 -55.9421 -54.8264 -54.8264 -53.9139
   -12.8504 -12.7060 -12.6115 -12.2468 -12.2329 -12.2329 -12.1993 -12.1993
   -12.1338 -12.1275 -12.1275 -12.0997 -12.0997 -12.0020 -11.9826 -11.9825
   -11.8850 -11.8850 -10.5996 -10.5996 -10.4999 -10.2157 -10.2157 -10.1773
   -10.1773 -10.1145 -10.1145 -10.0882 -10.0882 -10.0640 -10.0640  -9.9042
    -9.8485  -9.6538  -9.6538  -9.6425  -9.6425  -9.4826  -9.4538  -9.3477
    -9.3477  -9.2521  -9.2521  -9.2325  -9.2325  -8.9265  -8.6180  -8.6180
     1.9217   2.0419   2.1378   2.7034   2.7598   3.2859   3.8366   3.8366
     4.2208   5.0840   5.8141   5.8396   6.1339   6.1339   6.5514   6.5514
     6.5975   6.5975   7.1180   7.1180   7.1528   7.1529   7.2500   7.3515
     7.4371   7.4371   7.7621   7.8627   7.8627   7.9285   7.9285   8.0682
     8.4970   8.6529   8.7904   8.7904   8.8646   8.8646   9.6603   9.6604
     9.7452   9.8416  10.1347  10.1347  10.1860  10.1860  10.4233  10.4233
    10.8398  11.1006  11.1006  11.1223  11.1223  11.2264  11.2264  11.2400
    11.2546  11.2848  11.3860  11.3860  11.3895  11.5255  11.6093  11.6093
    11.7031  11.7032  11.8752  12.8228  12.8228  13.3277  13.5846  13.5846
    13.6018  13.7012  13.7012  14.2663  14.2663  14.2977  14.3569  14.3569
    14.3863  16.3121  16.3121  16.3757  16.3757  16.5114  16.5115  16.6671
    16.6997  16.9339  17.2259  17.2259  17.2431  17.2757  17.3739  18.2311
    18.2311  18.4633  18.4633  18.5653  18.5653  18.6686  18.9288  18.9732
    19.5558  19.5848  19.5848  19.6392  19.6392  20.4692  20.4692  21.1947
    21.2267  21.3415  21.9916  21.9916  23.1752  23.1752  23.3172  23.3173
    23.7905  24.1112  24.1113  24.1969  24.6913  25.0053  25.0734  25.0739

     occupation numbers 
     1.0000   1.0000   1.0000   1.0000   1.0000   1.0000   1.0000   1.0000
     1.0000   1.0000   1.0000   1.0000   1.0000   1.0000   1.0000   1.0000
     1.0000   1.0000   1.0000   1.0000   1.0000   1.0000   1.0000   1.0000
     1.0000   1.0000   1.0000   1.0000   1.0000   1.0000   1.0000   1.0000
     1.0000   1.0000   1.0000   1.0000   1.0000   1.0000   1.0000   1.0000
     1.0000   1.0000   1.0000   1.0000   1.0000   1.0000   1.0000   1.0000
     1.0000   1.0000   1.0000   1.0000   1.0000   1.0000   1.0000   1.0000
     1.0000   1.0000   1.0000   1.0000   1.0000   1.0000   1.0000   1.0000
     1.0000   1.0000   1.0000   1.0000   1.0000   1.0000   1.0000   1.0000
     1.0000   1.0000   1.0000   1.0000   1.0000   1.0000   1.0000   1.0000
     1.0000   1.0000   1.0000   1.0000   1.0000   1.0000   1.0000   1.0000
     1.0000   1.0000   1.0000   1.0000   1.0000   1.0000   1.0000   1.0000
     1.0000   1.0000   1.0000   1.0000   1.0000   1.0000   1.0000   1.0000
     1.0000   1.0000   1.0000   1.0000   1.0000   1.0000   1.0000   1.0000
     1.0000   1.0000   1.0000   1.0000   1.0000   1.0000   1.0000   1.0000
     1.0000   1.0000   1.0000   1.0000   1.0000   1.0000   1.0000   1.0000
     1.0000   1.0000   1.0000   1.0000   1.0000   1.0000   1.0000   1.0000
     1.0000   1.0000   1.0000   1.0000   1.0000   1.0000   1.0000   1.0000
     1.0000   1.0000   1.0000   0.0536   0.0536   0.0264   0.0053   0.0053
     0.0021   0.0000   0.0000   0.0000   0.0000   0.0000   0.0000   0.0000
     0.0000   0.0000   0.0000   0.0000   0.0000   0.0000   0.0000   0.0000
     0.0000   0.0000   0.0000   0.0000   0.0000   0.0000   0.0000   0.0000
     0.0000   0.0000   0.0000   0.0000   0.0000   0.0000   0.0000   0.0000
     0.0000   0.0000   0.0000   0.0000   0.0000   0.0000   0.0000   0.0000
     0.0000   0.0000   0.0000   0.0000   0.0000   0.0000   0.0000   0.0000

          k = 0.0000-0.5774 0.0000 (  1352 PWs)   bands (ev):

  -120.8110-120.6800-120.5337-120.5042-120.4349-119.8064 -60.9962 -60.6332
   -60.3946 -60.3455 -60.3373 -60.2143 -59.9788 -59.8955 -59.8512 -59.6842
   -59.5735 -59.5413 -59.3658 -59.2458 -58.9820 -58.8519 -58.2444 -57.0598
   -12.5392 -12.4694 -12.4228 -12.4176 -12.3849 -12.3366 -12.1794 -12.1632
   -12.1383 -12.1337 -12.1271 -12.0879 -12.0335 -12.0070 -11.9271 -11.9141
   -11.8941 -11.8722 -10.1007 -10.0706 -10.0672 -10.0065  -9.9941  -9.9663
    -9.9596  -9.9445  -9.9324  -9.9298  -9.8839  -9.8650  -9.8592  -9.8136
    -9.7957  -9.7940  -9.7896  -9.7604  -9.7234  -9.5574  -9.5332  -9.5222
    -9.5131  -9.5098  -9.4821  -9.4692  -9.4108  -9.3778  -9.3144  -8.9820
     1.9593   2.0840   2.1304   2.3721   2.3821   2.6091   5.5360   6.1511
     6.2280   6.3884   6.4670   6.4920   6.9431   6.9902   7.0135   7.0810
     7.1865   7.4824   7.6878   7.7337   7.7539   7.8052   7.9420   8.1139
     8.3652   8.4791   8.5689   8.6035   8.7586   8.8747   8.9060   8.9478
     9.2060   9.2406   9.2752   9.3304   9.3508   9.3745   9.4604   9.5089
     9.5962   9.6912   9.9667  10.1343  10.2753  10.3491  10.3715  10.3983
    10.4240  10.4917  10.5133  10.8758  10.8854  10.9147  11.1223  11.1912
    11.2870  11.4994  11.6041  11.6363  12.3023  12.3647  12.4438  12.4999
    12.5244  12.7445  13.1281  13.1605  13.3115  13.5413  13.6277  13.9157
    13.9804  14.0414  14.0478  14.1019  14.4303  14.6004  14.8303  14.8785
    15.0068  15.3246  15.3565  15.4359  15.5303  15.7829  15.9786  16.1239
    16.2189  16.4310  16.5752  16.6255  16.7168  17.2104  17.2571  17.6157
    17.6730  17.7143  17.8166  18.8977  18.9228  19.0288  19.1098  19.3154
    19.3887  19.4240  19.5891  19.6384  19.8548  19.9411  20.1068  20.2119
    20.3497  21.4755  22.9503  23.2091  23.2880  23.9094  24.0059  24.3377
    24.3454  24.3920  24.7791  24.8363  24.8646  24.9096  25.2750  25.3977

     occupation numbers 
     1.0000   1.0000   1.0000   1.0000   1.0000   1.0000   1.0000   1.0000
     1.0000   1.0000   1.0000   1.0000   1.0000   1.0000   1.0000   1.0000
     1.0000   1.0000   1.0000   1.0000   1.0000   1.0000   1.0000   1.0000
     1.0000   1.0000   1.0000   1.0000   1.0000   1.0000   1.0000   1.0000
     1.0000   1.0000   1.0000   1.0000   1.0000   1.0000   1.0000   1.0000
     1.0000   1.0000   1.0000   1.0000   1.0000   1.0000   1.0000   1.0000
     1.0000   1.0000   1.0000   1.0000   1.0000   1.0000   1.0000   1.0000
     1.0000   1.0000   1.0000   1.0000   1.0000   1.0000   1.0000   1.0000
     1.0000   1.0000   1.0000   1.0000   1.0000   1.0000   1.0000   1.0000
     1.0000   1.0000   1.0000   1.0000   1.0000   1.0000   1.0000   1.0000
     1.0000   1.0000   1.0000   1.0000   1.0000   1.0000   1.0000   1.0000
     1.0000   1.0000   1.0000   1.0000   1.0000   1.0000   1.0000   1.0000
     1.0000   1.0000   1.0000   1.0000   1.0000   1.0000   1.0000   1.0000
     1.0000   1.0000   1.0000   1.0000   1.0000   1.0000   1.0000   1.0000
     1.0000   1.0000   1.0000   1.0000   1.0000   1.0000   1.0000   1.0000
     1.0000   1.0000   1.0000   1.0000   1.0000   1.0000   1.0000   1.0000
     1.0000   1.0000   1.0000   1.0000   1.0000   1.0000   1.0000   1.0000
     1.0000   1.0000   1.0000   1.0000   1.0000   1.0000   1.0000   0.9790
     0.9133   0.7665   0.7455   0.5390   0.0005   0.0000   0.0000   0.0000
     0.0000   0.0000   0.0000   0.0000   0.0000   0.0000   0.0000   0.0000
     0.0000   0.0000   0.0000   0.0000   0.0000   0.0000   0.0000   0.0000
     0.0000   0.0000   0.0000   0.0000   0.0000   0.0000   0.0000   0.0000
     0.0000   0.0000   0.0000   0.0000   0.0000   0.0000   0.0000   0.0000
     0.0000   0.0000   0.0000   0.0000   0.0000   0.0000   0.0000   0.0000
     0.0000   0.0000   0.0000   0.0000   0.0000   0.0000   0.0000   0.0000

     the Fermi energy is    14.1113 ev

!    total energy              =   -2971.94339933 Ry
     estimated scf accuracy    <       0.00077465 Ry
     smearing contrib. (-TS)   =      -0.01415814 Ry
     internal energy E=F+TS    =   -2971.92924119 Ry

     The total energy is F=E-TS. E is the sum of the following terms:
     one-electron contribution =    -840.57756735 Ry
     hartree contribution      =     531.89529138 Ry
     xc contribution           =    -635.59782351 Ry
     ewald contribution        =   -2027.64914172 Ry

     total magnetization       =     0.01 Bohr mag/cell
     absolute magnetization    =     1.18 Bohr mag/cell

     convergence has been achieved in  17 iterations

     Writing output data file /home/aldair1809/Documentos/QE/4BFO/UHUBBARD/temp/pseudo_o_pbesol_v1.2.uspp.F.UPF_ecutwfc_10.in/bifeo3-scf.save/

     init_run     :      2.38s CPU      2.44s WALL (       1 calls)
     electrons    :    150.28s CPU    155.90s WALL (       1 calls)

     Called by init_run:
     wfcinit      :      2.07s CPU      2.11s WALL (       1 calls)
     wfcinit:atom :      0.00s CPU      0.00s WALL (       4 calls)
     wfcinit:wfcr :      2.04s CPU      2.08s WALL (       4 calls)
     potinit      :      0.04s CPU      0.05s WALL (       1 calls)
     hinit0       :      0.18s CPU      0.18s WALL (       1 calls)

     Called by electrons:
     c_bands      :    138.00s CPU    143.22s WALL (      17 calls)
     sum_band     :     10.47s CPU     10.86s WALL (      17 calls)
     v_of_rho     :      0.23s CPU      0.24s WALL (      18 calls)
     v_h          :      0.00s CPU      0.01s WALL (      18 calls)
     v_xc         :      0.22s CPU      0.23s WALL (      18 calls)
     newd         :      1.61s CPU      1.64s WALL (      18 calls)
     mix_rho      :      0.04s CPU      0.04s WALL (      17 calls)

     Called by c_bands:
     init_us_2    :      0.20s CPU      0.21s WALL (     140 calls)
     ccgdiagg     :    105.19s CPU    109.74s WALL (      68 calls)
     wfcrot       :     34.64s CPU     35.34s WALL (      68 calls)

     Called by sum_band:
     sum_band:wei :      0.02s CPU      0.02s WALL (      17 calls)
     sum_band:loo :      8.65s CPU      9.02s WALL (      17 calls)
     sum_band:buf :      0.03s CPU      0.03s WALL (      68 calls)
     sum_band:ini :      0.10s CPU      0.10s WALL (      68 calls)
     sum_band:cal :      6.29s CPU      6.36s WALL (      68 calls)
     sum_band:bec :      0.34s CPU      0.34s WALL (      68 calls)
     addusdens    :      1.68s CPU      1.69s WALL (      17 calls)
     addusd:skk   :      0.01s CPU      0.01s WALL (      68 calls)
     addusd:dgemm :      0.73s CPU      0.74s WALL (     136 calls)
     addusd:qvan2 :      0.91s CPU      0.92s WALL (     136 calls)

     Called by *cgdiagg:
     h_psi        :     61.37s CPU     64.95s WALL (   31085 calls)
     s_psi        :     39.75s CPU     40.64s WALL (   62102 calls)

     Called by h_psi:
     h_psi:calbec :     22.94s CPU     24.66s WALL (   31085 calls)
     vloc_psi     :     14.79s CPU     15.94s WALL (   31085 calls)
     add_vuspsi   :     23.17s CPU     23.93s WALL (   31085 calls)
     hs_1psi      :     61.61s CPU     64.86s WALL (   31017 calls)
     s_1psi       :     32.64s CPU     33.78s WALL (   31017 calls)

     General routines
     calbec       :     44.99s CPU     47.45s WALL (   62170 calls)
     fft          :      0.09s CPU      0.10s WALL (     376 calls)
     ffts         :      0.01s CPU      0.01s WALL (      34 calls)
     fftw         :     14.78s CPU     16.08s WALL (  102866 calls)

     Parallel routines
     fft_scatt_xy :      1.49s CPU      1.62s WALL (  103276 calls)
     fft_scatt_yz :      3.64s CPU      4.00s WALL (  103276 calls)

     PWSCF        :   2m33.09s CPU   2m38.84s WALL


   This run was terminated on:  21:32:14  28Sep2024            

=------------------------------------------------------------------------------=
   JOB DONE.
=------------------------------------------------------------------------------=
