
     Program PWSCF v.6.7MaX starts on 28Sep2024 at 21:13:39 

     This program is part of the open-source Quantum ESPRESSO suite
     for quantum simulation of materials; please cite
         "P. Giannozzi et al., J. Phys.:Condens. Matter 21 395502 (2009);
         "P. Giannozzi et al., J. Phys.:Condens. Matter 29 465901 (2017);
          URL http://www.quantum-espresso.org", 
     in publications or presentations arising from this work. More details at
     http://www.quantum-espresso.org/quote

     Parallel version (MPI), running on     4 processors

     MPI processes distributed on     1 nodes
     R & G space division:  proc/nbgrp/npool/nimage =       4
     Waiting for input...
     Reading input from standard input

     Current dimensions of program PWSCF are:
     Max number of different atomic species (ntypx) = 10
     Max number of k-points (npk) =  40000
     Max angular momentum in pseudopotentials (lmaxx) =  3
     Message from routine iosys:
     wrong startingpot: use default (1)

     Subspace diagonalization in iterative solution of the eigenvalue problem:
     one sub-group per band group will be used
     scalapack distributed-memory algorithm (size of sub-group:  2*  2 procs)

     Message from routine setup:
     using ibrav=0 with symmetry is DISCOURAGED, use correct ibrav instead

     Parallelization info
     --------------------
     sticks:   dense  smooth     PW     G-vecs:    dense   smooth      PW
     Min         139     139     40                 6561     6561    1030
     Max         140     140     41                 6568     6568    1037
     Sum         559     559    163                26261    26261    4137



     bravais-lattice index     =            0
     lattice parameter (alat)  =      10.5468  a.u.
     unit-cell volume          =    2535.5110 (a.u.)^3
     number of atoms/cell      =           30
     number of atomic types    =            4
     number of electrons       =       294.00
     number of Kohn-Sham states=          200
     kinetic-energy cutoff     =      18.0000  Ry
     charge density cutoff     =      72.0000  Ry
     scf convergence threshold =      1.0E-03
     mixing beta               =       0.2000
     number of iterations used =            8  plain     mixing
     Exchange-correlation=  SLA  PW   PBX  PBC
                           (   1   4   3   4   0   0   0)

     celldm(1)=  10.546849  celldm(2)=   0.000000  celldm(3)=   0.000000
     celldm(4)=   0.000000  celldm(5)=   0.000000  celldm(6)=   0.000000

     crystal axes: (cart. coord. in units of alat)
               a(1) = (   1.000000  -0.000000  -0.000000 )  
               a(2) = (  -0.500000   0.866025  -0.000000 )  
               a(3) = (   0.000000  -0.000000   2.495552 )  

     reciprocal axes: (cart. coord. in units 2 pi/alat)
               b(1) = (  1.000000  0.577350  0.000000 )  
               b(2) = (  0.000000  1.154701  0.000000 )  
               b(3) = (  0.000000  0.000000  0.400713 )  


     PseudoPot. # 1 for O  read from file:
     /home/aldair1809/Programas/QE/q-e-qe-7.3/pseudo/o_pbe_v1.2.uspp.F.UPF
     MD5 check sum: 734c27235a0248c51dbae37a1fbe46ec
     Pseudo is Ultrasoft + core correction, Zval =  6.0
     Generated by new atomic code, or converted to UPF format
     Using radial grid of  737 points,  5 beta functions with: 
                l(1) =   0
                l(2) =   0
                l(3) =   1
                l(4) =   1
                l(5) =   2
     Q(r) pseudized with  8 coefficients,  rinner =    0.900   0.900   0.900
                                                       0.900   0.900

     PseudoPot. # 2 for Bi read from file:
     /home/aldair1809/Programas/QE/q-e-qe-7.3/pseudo/bi_pbe_v1.uspp.F.UPF
     MD5 check sum: cceb9f28ec65b6d7ff33140f5b0b1758
     Pseudo is Ultrasoft + core correction, Zval = 15.0
     Generated by new atomic code, or converted to UPF format
     Using radial grid of  899 points,  6 beta functions with: 
                l(1) =   0
                l(2) =   0
                l(3) =   1
                l(4) =   1
                l(5) =   2
                l(6) =   2
     Q(r) pseudized with  6 coefficients,  rinner =    1.000   1.000   1.000
                                                       1.000   1.000

     PseudoPot. # 3 for Fe read from file:
     /home/aldair1809/Programas/QE/q-e-qe-7.3/pseudo/fe_pbe_v1.5.uspp.F.UPF
     MD5 check sum: a130daea23fe5165f5d574ae7f82ed95
     Pseudo is Ultrasoft + core correction, Zval = 16.0
     Generated by new atomic code, or converted to UPF format
     Using radial grid of  861 points,  6 beta functions with: 
                l(1) =   0
                l(2) =   0
                l(3) =   1
                l(4) =   1
                l(5) =   2
                l(6) =   2
     Q(r) pseudized with  8 coefficients,  rinner =    1.000   1.000   1.000
                                                       1.000   1.000

     PseudoPot. # 4 for Fe read from file:
     /home/aldair1809/Programas/QE/q-e-qe-7.3/pseudo/fe_pbe_v1.5.uspp.F.UPF
     MD5 check sum: a130daea23fe5165f5d574ae7f82ed95
     Pseudo is Ultrasoft + core correction, Zval = 16.0
     Generated by new atomic code, or converted to UPF format
     Using radial grid of  861 points,  6 beta functions with: 
                l(1) =   0
                l(2) =   0
                l(3) =   1
                l(4) =   1
                l(5) =   2
                l(6) =   2
     Q(r) pseudized with  8 coefficients,  rinner =    1.000   1.000   1.000
                                                       1.000   1.000

     atomic species   valence    mass     pseudopotential
        O              6.00    15.99940     O ( 1.00)
        Bi            15.00   208.98040     Bi( 1.00)
        Fe1           16.00    55.84500     Fe( 1.00)
        Fe2           16.00    55.84500     Fe( 1.00)

     Starting magnetic structure 
     atomic species   magnetization
        O            0.000
        Bi           0.000
        Fe1         -0.800
        Fe2          0.800

      3 Sym. Ops. (no inversion) found


                                    s                        frac. trans.

      isym =  1     identity                                     

 cryst.   s( 1) = (     1          0          0      )
                  (     0          1          0      )
                  (     0          0          1      )

 cart.    s( 1) = (  1.0000000 -0.0000000  0.0000000 )
                  (  0.0000000  1.0000000  0.0000000 )
                  (  0.0000000  0.0000000  1.0000000 )


      isym =  2     120 deg rotation - cryst. axis [0,0,1]       

 cryst.   s( 2) = (     0          1          0      )
                  (    -1         -1          0      )
                  (     0          0          1      )

 cart.    s( 2) = ( -0.5000000 -0.8660254  0.0000000 )
                  (  0.8660254 -0.5000000  0.0000000 )
                  (  0.0000000  0.0000000  1.0000000 )


      isym =  3     120 deg rotation - cryst. axis [0,0,-1]      

 cryst.   s( 3) = (    -1         -1          0      )
                  (     1          0          0      )
                  (     0          0          1      )

 cart.    s( 3) = ( -0.5000000  0.8660254  0.0000000 )
                  ( -0.8660254 -0.5000000  0.0000000 )
                  (  0.0000000  0.0000000  1.0000000 )


   Cartesian axes

     site n.     atom                  positions (alat units)
         1           Fe1 tau(   1) = (   0.0000000   0.0000000   1.9384582  )
         2           Fe1 tau(   2) = (  -0.0000005   0.5773506   2.3615556  )
         3           Fe1 tau(   3) = (   0.5000005   0.2886748   1.5200787  )
         4           Fe2 tau(   4) = (   0.5000005   0.2886748   0.2722626  )
         5           Fe2 tau(   5) = (   0.0000000   0.0000000   0.6907071  )
         6           Fe2 tau(   6) = (  -0.0000005   0.5773506   1.1137452  )
         7           Bi  tau(   7) = (   0.5000005   0.2886748   2.0843143  )
         8           Bi  tau(   8) = (  -0.0000005   0.5773506   1.6713980  )
         9           Bi  tau(   9) = (  -0.0000005   0.5773506   0.4235448  )
        10           Bi  tau(  10) = (   0.0000000   0.0000000   0.0002821  )
        11           Bi  tau(  11) = (   0.0000000   0.0000000   1.2481025  )
        12           Bi  tau(  12) = (   0.5000005   0.2886748   0.8364865  )
        13           O   tau(  13) = (  -0.3105904   0.6551932   2.2011299  )
        14           O   tau(  14) = (   0.0878817   0.2694488   2.2011299  )
        15           O   tau(  15) = (   0.2227102   0.8074080   2.2011299  )
        16           O   tau(  16) = (   0.4087504   0.5589755   1.7846473  )
        17           O   tau(  17) = (   0.3115373   0.0745013   1.7846473  )
        18           O   tau(  18) = (   0.7797108   0.2325494   1.7846473  )
        19           O   tau(  19) = (   0.6884743   0.0745026   0.5368244  )
        20           O   tau(  20) = (   0.5912412   0.5589858   0.5368244  )
        21           O   tau(  21) = (   0.2202830   0.2325379   0.5368244  )
        22           O   tau(  22) = (  -0.0823010   0.8482993   0.1166193  )
        23           O   tau(  23) = (  -0.1934983   0.3706010   0.1166193  )
        24           O   tau(  24) = (   0.2757993   0.5131505   0.1166193  )
        25           O   tau(  25) = (   0.1934855   0.3705936   1.3644430  )
        26           O   tau(  26) = (   0.0823138   0.8482919   1.3644430  )
        27           O   tau(  27) = (  -0.2757993   0.5131653   1.3644430  )
        28           O   tau(  28) = (  -0.0878870   0.2694458   0.9533686  )
        29           O   tau(  29) = (   0.3105971   0.6551893   0.9533686  )
        30           O   tau(  30) = (  -0.2227086   0.8074149   0.9533686  )

   Crystallographic axes

     site n.     atom                  positions (cryst. coord.)
         1           Fe1 tau(   1) = (  0.0000000  0.0000000  0.7767652  )
         2           Fe1 tau(   2) = (  0.3333330  0.6666670  0.9463058  )
         3           Fe1 tau(   3) = (  0.6666670  0.3333330  0.6091152  )
         4           Fe2 tau(   4) = (  0.6666670  0.3333330  0.1090991  )
         5           Fe2 tau(   5) = (  0.0000000  0.0000000  0.2767753  )
         6           Fe2 tau(   6) = (  0.3333330  0.6666670  0.4462921  )
         7           Bi  tau(   7) = (  0.6666670  0.3333330  0.8352117  )
         8           Bi  tau(   8) = (  0.3333330  0.6666670  0.6697508  )
         9           Bi  tau(   9) = (  0.3333330  0.6666670  0.1697199  )
        10           Bi  tau(  10) = (  0.0000000  0.0000000  0.0001130  )
        11           Bi  tau(  11) = (  0.0000000  0.0000000  0.5001308  )
        12           Bi  tau(  12) = (  0.6666670  0.3333330  0.3351910  )
        13           O   tau(  13) = (  0.0676856  0.7565520  0.8820212  )
        14           O   tau(  14) = (  0.2434480  0.3111326  0.8820212  )
        15           O   tau(  15) = (  0.6888674  0.9323144  0.8820212  )
        16           O   tau(  16) = (  0.7314750  0.6454493  0.7151312  )
        17           O   tau(  17) = (  0.3545507  0.0860267  0.7151312  )
        18           O   tau(  18) = (  0.9139733  0.2685250  0.7151312  )
        19           O   tau(  19) = (  0.7314884  0.0860282  0.2151125  )
        20           O   tau(  20) = (  0.9139718  0.6454612  0.2151125  )
        21           O   tau(  21) = (  0.3545388  0.2685116  0.2151125  )
        22           O   tau(  22) = (  0.4074649  0.9795317  0.0467309  )
        23           O   tau(  23) = (  0.0204683  0.4279331  0.0467309  )
        24           O   tau(  24) = (  0.5720669  0.5925351  0.0467309  )
        25           O   tau(  25) = (  0.4074478  0.4279246  0.5467499  )
        26           O   tau(  26) = (  0.5720754  0.9795232  0.5467499  )
        27           O   tau(  27) = (  0.0204768  0.5925522  0.5467499  )
        28           O   tau(  28) = (  0.0676775  0.3111292  0.3820271  )
        29           O   tau(  29) = (  0.6888708  0.7565474  0.3820271  )
        30           O   tau(  30) = (  0.2434526  0.9323225  0.3820271  )

     number of k points=     2  Gaussian smearing, width (Ry)=  0.0100
                       cart. coord. in units 2pi/alat
        k(    1) = (   0.0000000   0.0000000   0.0000000), wk =   0.2500000
        k(    2) = (   0.0000000  -0.5773503   0.0000000), wk =   0.7500000

                       cryst. coord.
        k(    1) = (   0.0000000   0.0000000   0.0000000), wk =   0.2500000
        k(    2) = (   0.0000000  -0.5000000   0.0000000), wk =   0.7500000

     Dense  grid:    26261 G-vectors     FFT dimensions: (  30,  30,  72)

     Dynamical RAM for                 wfc:       2.49 MB

     Dynamical RAM for     wfc (w. buffer):      12.47 MB

     Dynamical RAM for           str. fact:       0.40 MB

     Dynamical RAM for           local pot:       0.00 MB

     Dynamical RAM for          nlocal pot:       5.61 MB

     Dynamical RAM for                qrad:       2.73 MB

     Dynamical RAM for          rho,v,vnew:       1.34 MB

     Dynamical RAM for               rhoin:       0.45 MB

     Dynamical RAM for            rho*nmix:       3.21 MB

     Dynamical RAM for           G-vectors:       0.43 MB

     Dynamical RAM for          h,s,v(r/c):       0.46 MB

     Dynamical RAM for          <psi|beta>:       1.37 MB

     Dynamical RAM for      wfcinit/wfcrot:       6.04 MB

     Dynamical RAM for           addusdens:      20.54 MB

     Estimated static dynamical RAM per process >      27.87 MB

     Estimated max dynamical RAM per process >      48.41 MB

     Estimated total dynamical RAM >     193.64 MB

     Check: negative core charge=   -0.001761
     Generating pointlists ...
     new r_m :   0.1458 (alat units)  1.5374 (a.u.) for type    1
     new r_m :   0.1687 (alat units)  1.7788 (a.u.) for type    2
     new r_m :   0.1458 (alat units)  1.5374 (a.u.) for type    3
     new r_m :   0.1458 (alat units)  1.5374 (a.u.) for type    4

     Initial potential from superposition of free atoms

     starting charge  281.99969, renormalised to  294.00000

     negative rho (up, down):  1.254E-01 1.253E-01
     Starting wfcs are  204 randomized atomic wfcs

     total cpu time spent up to now is        6.1 secs

     Self-consistent Calculation

     iteration #  1     ecut=    18.00 Ry     beta= 0.20
     CG style diagonalization
     ethr =  1.00E-02,  avg # of iterations =  2.8

     negative rho (up, down):  1.106E-01 1.106E-01

     total cpu time spent up to now is       28.8 secs

     total energy              =   -3170.49101226 Ry
     estimated scf accuracy    <      30.11792146 Ry

     total magnetization       =    -0.00 Bohr mag/cell
     absolute magnetization    =    30.49 Bohr mag/cell

     iteration #  2     ecut=    18.00 Ry     beta= 0.20
     CG style diagonalization
     ethr =  1.00E-02,  avg # of iterations =  3.0

     negative rho (up, down):  9.474E-02 9.473E-02

     total cpu time spent up to now is       48.4 secs

     total energy              =   -3171.70143024 Ry
     estimated scf accuracy    <      14.12084343 Ry

     total magnetization       =    -0.00 Bohr mag/cell
     absolute magnetization    =    30.34 Bohr mag/cell

     iteration #  3     ecut=    18.00 Ry     beta= 0.20
     CG style diagonalization
     ethr =  4.80E-03,  avg # of iterations =  3.5

     negative rho (up, down):  9.304E-02 9.303E-02

     total cpu time spent up to now is       71.2 secs

     total energy              =   -3182.38576119 Ry
     estimated scf accuracy    <      30.53165393 Ry

     total magnetization       =    -0.01 Bohr mag/cell
     absolute magnetization    =    16.86 Bohr mag/cell

     iteration #  4     ecut=    18.00 Ry     beta= 0.20
     CG style diagonalization
     ethr =  4.80E-03,  avg # of iterations =  3.0

     negative rho (up, down):  9.332E-02 9.334E-02

     total cpu time spent up to now is       90.6 secs

     total energy              =   -3180.10377252 Ry
     estimated scf accuracy    <     107.22673229 Ry

     total magnetization       =     0.05 Bohr mag/cell
     absolute magnetization    =     4.47 Bohr mag/cell

     iteration #  5     ecut=    18.00 Ry     beta= 0.20
     CG style diagonalization
     ethr =  4.80E-03,  avg # of iterations =  3.0

     negative rho (up, down):  9.375E-02 9.381E-02

     total cpu time spent up to now is      109.9 secs

     total energy              =   -3176.70585774 Ry
     estimated scf accuracy    <      72.90186727 Ry

     total magnetization       =     0.18 Bohr mag/cell
     absolute magnetization    =     7.33 Bohr mag/cell

     iteration #  6     ecut=    18.00 Ry     beta= 0.20
     CG style diagonalization
     ethr =  4.80E-03,  avg # of iterations =  3.0

     negative rho (up, down):  9.433E-02 9.443E-02

     total cpu time spent up to now is      129.2 secs

     total energy              =   -3174.66522320 Ry
     estimated scf accuracy    <      51.94217275 Ry

     total magnetization       =     1.31 Bohr mag/cell
     absolute magnetization    =    12.70 Bohr mag/cell

     iteration #  7     ecut=    18.00 Ry     beta= 0.20
     CG style diagonalization
     ethr =  4.80E-03,  avg # of iterations =  3.0

     negative rho (up, down):  9.433E-02 9.442E-02

     total cpu time spent up to now is      148.8 secs

     total energy              =   -3175.68429013 Ry
     estimated scf accuracy    <      10.46090151 Ry

     total magnetization       =     0.07 Bohr mag/cell
     absolute magnetization    =    21.14 Bohr mag/cell

     iteration #  8     ecut=    18.00 Ry     beta= 0.20
     CG style diagonalization
     ethr =  3.56E-03,  avg # of iterations =  3.0

     negative rho (up, down):  9.434E-02 9.444E-02

     total cpu time spent up to now is      168.1 secs

     total energy              =   -3175.73297985 Ry
     estimated scf accuracy    <       9.68632279 Ry

     total magnetization       =    -0.08 Bohr mag/cell
     absolute magnetization    =    20.91 Bohr mag/cell

     iteration #  9     ecut=    18.00 Ry     beta= 0.20
     CG style diagonalization
     ethr =  3.29E-03,  avg # of iterations =  3.0

     negative rho (up, down):  9.451E-02 9.460E-02

     total cpu time spent up to now is      187.4 secs

     total energy              =   -3175.77136758 Ry
     estimated scf accuracy    <      11.24566972 Ry

     total magnetization       =     0.67 Bohr mag/cell
     absolute magnetization    =    20.04 Bohr mag/cell

     iteration # 10     ecut=    18.00 Ry     beta= 0.20
     CG style diagonalization
     ethr =  3.29E-03,  avg # of iterations =  3.0

     negative rho (up, down):  9.528E-02 9.540E-02

     total cpu time spent up to now is      207.5 secs

     total energy              =   -3174.88537149 Ry
     estimated scf accuracy    <      15.63830633 Ry

     total magnetization       =    -0.65 Bohr mag/cell
     absolute magnetization    =    18.21 Bohr mag/cell

     iteration # 11     ecut=    18.00 Ry     beta= 0.20
     CG style diagonalization
     ethr =  3.29E-03,  avg # of iterations =  3.0

     negative rho (up, down):  9.582E-02 9.593E-02

     total cpu time spent up to now is      229.9 secs

     total energy              =   -3175.37398202 Ry
     estimated scf accuracy    <       0.60759348 Ry

     total magnetization       =     0.08 Bohr mag/cell
     absolute magnetization    =    26.22 Bohr mag/cell

     iteration # 12     ecut=    18.00 Ry     beta= 0.20
     CG style diagonalization
     ethr =  2.07E-04,  avg # of iterations =  3.2

     negative rho (up, down):  9.628E-02 9.637E-02

     total cpu time spent up to now is      256.8 secs

     total energy              =   -3175.32230349 Ry
     estimated scf accuracy    <       0.79999022 Ry

     total magnetization       =     0.39 Bohr mag/cell
     absolute magnetization    =    25.76 Bohr mag/cell

     iteration # 13     ecut=    18.00 Ry     beta= 0.20
     CG style diagonalization
     ethr =  2.07E-04,  avg # of iterations =  3.0

     negative rho (up, down):  9.670E-02 9.679E-02

     total cpu time spent up to now is      278.7 secs

     total energy              =   -3175.39991029 Ry
     estimated scf accuracy    <       0.20087630 Ry

     total magnetization       =    -0.07 Bohr mag/cell
     absolute magnetization    =    27.30 Bohr mag/cell

     iteration # 14     ecut=    18.00 Ry     beta= 0.20
     CG style diagonalization
     ethr =  6.83E-05,  avg # of iterations =  3.1

     negative rho (up, down):  9.716E-02 9.723E-02

     total cpu time spent up to now is      298.8 secs

     total energy              =   -3175.42670821 Ry
     estimated scf accuracy    <       0.08692745 Ry

     total magnetization       =     0.05 Bohr mag/cell
     absolute magnetization    =    27.36 Bohr mag/cell

     iteration # 15     ecut=    18.00 Ry     beta= 0.20
     CG style diagonalization
     ethr =  2.96E-05,  avg # of iterations =  3.1

     negative rho (up, down):  9.710E-02 9.715E-02

     total cpu time spent up to now is      319.0 secs

     total energy              =   -3175.43538273 Ry
     estimated scf accuracy    <       0.06452683 Ry

     total magnetization       =     0.00 Bohr mag/cell
     absolute magnetization    =    27.36 Bohr mag/cell

     iteration # 16     ecut=    18.00 Ry     beta= 0.20
     CG style diagonalization
     c_bands:  2 eigenvalues not converged
     ethr =  2.19E-05,  avg # of iterations =  3.1

     negative rho (up, down):  9.704E-02 9.709E-02

     total cpu time spent up to now is      339.6 secs

     total energy              =   -3175.43877427 Ry
     estimated scf accuracy    <       0.02764506 Ry

     total magnetization       =     0.01 Bohr mag/cell
     absolute magnetization    =    27.20 Bohr mag/cell

     iteration # 17     ecut=    18.00 Ry     beta= 0.20
     CG style diagonalization
     c_bands:  1 eigenvalues not converged
     c_bands:  1 eigenvalues not converged
     c_bands:  1 eigenvalues not converged
     ethr =  9.40E-06,  avg # of iterations =  3.2

     negative rho (up, down):  9.686E-02 9.689E-02

     total cpu time spent up to now is      360.6 secs

     total energy              =   -3175.44467882 Ry
     estimated scf accuracy    <       0.01265092 Ry

     total magnetization       =    -0.00 Bohr mag/cell
     absolute magnetization    =    27.19 Bohr mag/cell

     iteration # 18     ecut=    18.00 Ry     beta= 0.20
     CG style diagonalization
     c_bands:  2 eigenvalues not converged
     c_bands:  1 eigenvalues not converged
     ethr =  4.30E-06,  avg # of iterations =  3.2

     negative rho (up, down):  9.685E-02 9.688E-02

     total cpu time spent up to now is      381.5 secs

     total energy              =   -3175.44887950 Ry
     estimated scf accuracy    <       0.00306287 Ry

     total magnetization       =     0.00 Bohr mag/cell
     absolute magnetization    =    27.14 Bohr mag/cell

     iteration # 19     ecut=    18.00 Ry     beta= 0.20
     CG style diagonalization
     c_bands:  1 eigenvalues not converged
     ethr =  1.04E-06,  avg # of iterations =  3.1

     negative rho (up, down):  9.680E-02 9.683E-02

     total cpu time spent up to now is      401.8 secs

     total energy              =   -3175.45151598 Ry
     estimated scf accuracy    <       0.00289708 Ry

     total magnetization       =    -0.01 Bohr mag/cell
     absolute magnetization    =    27.22 Bohr mag/cell

     iteration # 20     ecut=    18.00 Ry     beta= 0.20
     CG style diagonalization
     c_bands:  1 eigenvalues not converged
     ethr =  9.85E-07,  avg # of iterations =  3.0

     negative rho (up, down):  9.676E-02 9.678E-02

     total cpu time spent up to now is      422.0 secs

     total energy              =   -3175.45397053 Ry
     estimated scf accuracy    <       0.00127924 Ry

     total magnetization       =     0.00 Bohr mag/cell
     absolute magnetization    =    27.27 Bohr mag/cell

     iteration # 21     ecut=    18.00 Ry     beta= 0.20
     CG style diagonalization
     ethr =  4.35E-07,  avg # of iterations =  3.1

     negative rho (up, down):  9.675E-02 9.677E-02

     Magnetic moment per site:
     atom:    1    charge:   13.2712    magn:   -3.6001    constr:    0.0000
     atom:    2    charge:   13.2838    magn:   -3.4966    constr:    0.0000
     atom:    3    charge:   13.2837    magn:   -3.4786    constr:    0.0000
     atom:    4    charge:   13.2848    magn:    3.4814    constr:    0.0000
     atom:    5    charge:   13.2721    magn:    3.5998    constr:    0.0000
     atom:    6    charge:   13.2825    magn:    3.4951    constr:    0.0000
     atom:    7    charge:   10.4584    magn:   -0.0214    constr:    0.0000
     atom:    8    charge:   10.4586    magn:   -0.0168    constr:    0.0000
     atom:    9    charge:   10.4587    magn:    0.0166    constr:    0.0000
     atom:   10    charge:   10.4571    magn:   -0.0073    constr:    0.0000
     atom:   11    charge:   10.4567    magn:    0.0074    constr:    0.0000
     atom:   12    charge:   10.4583    magn:    0.0215    constr:    0.0000
     atom:   13    charge:    5.4227    magn:   -0.2288    constr:    0.0000
     atom:   14    charge:    5.4227    magn:   -0.2288    constr:    0.0000
     atom:   15    charge:    5.4227    magn:   -0.2288    constr:    0.0000
     atom:   16    charge:    5.4198    magn:   -0.2504    constr:    0.0000
     atom:   17    charge:    5.4198    magn:   -0.2504    constr:    0.0000
     atom:   18    charge:    5.4198    magn:   -0.2504    constr:    0.0000
     atom:   19    charge:    5.4211    magn:    0.2502    constr:    0.0000
     atom:   20    charge:    5.4211    magn:    0.2502    constr:    0.0000
     atom:   21    charge:    5.4211    magn:    0.2502    constr:    0.0000
     atom:   22    charge:    5.4103    magn:    0.0869    constr:    0.0000
     atom:   23    charge:    5.4103    magn:    0.0869    constr:    0.0000
     atom:   24    charge:    5.4103    magn:    0.0869    constr:    0.0000
     atom:   25    charge:    5.4088    magn:   -0.0860    constr:    0.0000
     atom:   26    charge:    5.4088    magn:   -0.0860    constr:    0.0000
     atom:   27    charge:    5.4088    magn:   -0.0860    constr:    0.0000
     atom:   28    charge:    5.4231    magn:    0.2279    constr:    0.0000
     atom:   29    charge:    5.4231    magn:    0.2279    constr:    0.0000
     atom:   30    charge:    5.4231    magn:    0.2279    constr:    0.0000

     total cpu time spent up to now is      441.9 secs

     End of self-consistent calculation

 ------ SPIN UP ------------


          k = 0.0000 0.0000 0.0000 (  3257 PWs)   bands (ev):

   -83.2648 -83.0485 -83.0274 -78.6040 -78.5234 -78.4921 -47.4090 -47.2434
   -47.2434 -47.2142 -47.1008 -46.9324 -46.9324 -46.8073 -46.8073 -42.9087
   -42.8318 -42.8318 -42.8308 -42.7629 -42.6145 -42.6145 -42.4467 -42.4467
   -11.1687 -11.1687 -11.1246 -11.1246 -11.0984 -11.0984 -11.0639 -11.0466
   -11.0403 -11.0403 -11.0341 -11.0341 -11.0169 -11.0117 -11.0117 -10.9993
   -10.9737 -10.9737 -10.9596 -10.9596 -10.9561 -10.9381 -10.9381 -10.9326
   -10.9226 -10.9226 -10.9054 -10.9054 -10.8873 -10.8873  -8.6439  -8.3000
    -8.1657  -7.5153  -7.4529  -7.1336  -7.1334  -7.0000  -6.9999  -6.9738
    -6.9068  -6.9067  -6.7843  -6.7842  -6.6088  -6.6088  -6.4312  -6.4311
     0.8935   1.0878   1.1429   1.8619   2.0002   2.6985   5.0980   5.0980
     5.2094   5.5316   5.5316   5.6073   5.6073   5.6542   5.8391   5.8391
     5.8692   6.1007   6.1556   6.1556   6.3410   6.4337   6.4337   6.5252
     6.5408   6.5409   6.6328   6.8409   6.8409   7.1591   7.2491   7.2491
     7.3262   7.6866   7.7943   7.7943   7.9952   7.9952   8.0517   8.0518
     8.1278   8.2819   8.4709   8.4709   8.5672   8.5672   8.5900   8.7069
     8.7676   8.7677   8.9087   8.9087   9.0826   9.0826   9.3308   9.3973
     9.3974   9.4474   9.4475   9.5302   9.5303   9.9189   9.9190  10.1578
    10.2726  10.2727  10.3693  10.5163  10.6275  10.7037  10.7037  10.7676
    10.8346  11.1719  11.1720  11.7081  11.7082  11.8881  11.8881  11.9752
    12.0348  12.0349  12.1406  12.2499  13.1063  13.1063  13.3813  13.3814
    13.8074  13.8074  15.1230  15.2462  15.3569  15.4040  16.4297  16.4297
    16.6203  16.6203  16.6647  16.6648  17.0234  17.1027  17.2681  17.2681
    17.3619  17.3620  17.7963  17.7964  18.2651  19.7425  19.8635  20.0706
    20.8376  20.8376  21.1323  21.2229  21.8534  21.8534  21.9965  21.9965
    22.2457  22.2457  23.0599  23.2324  23.2328  23.2673  23.3851  23.3853

     occupation numbers 
     1.0000   1.0000   1.0000   1.0000   1.0000   1.0000   1.0000   1.0000
     1.0000   1.0000   1.0000   1.0000   1.0000   1.0000   1.0000   1.0000
     1.0000   1.0000   1.0000   1.0000   1.0000   1.0000   1.0000   1.0000
     1.0000   1.0000   1.0000   1.0000   1.0000   1.0000   1.0000   1.0000
     1.0000   1.0000   1.0000   1.0000   1.0000   1.0000   1.0000   1.0000
     1.0000   1.0000   1.0000   1.0000   1.0000   1.0000   1.0000   1.0000
     1.0000   1.0000   1.0000   1.0000   1.0000   1.0000   1.0000   1.0000
     1.0000   1.0000   1.0000   1.0000   1.0000   1.0000   1.0000   1.0000
     1.0000   1.0000   1.0000   1.0000   1.0000   1.0000   1.0000   1.0000
     1.0000   1.0000   1.0000   1.0000   1.0000   1.0000   1.0000   1.0000
     1.0000   1.0000   1.0000   1.0000   1.0000   1.0000   1.0000   1.0000
     1.0000   1.0000   1.0000   1.0000   1.0000   1.0000   1.0000   1.0000
     1.0000   1.0000   1.0000   1.0000   1.0000   1.0000   1.0000   1.0000
     1.0000   1.0000   1.0000   1.0000   1.0000   1.0000   1.0000   1.0000
     1.0000   1.0000   1.0000   1.0000   1.0000   1.0000   1.0000   1.0000
     1.0000   1.0000   1.0000   1.0000   1.0000   1.0000   1.0000   1.0000
     1.0000   1.0000   1.0000   1.0000   1.0000   1.0000   1.0000   1.0000
     1.0000   1.0000   1.0000   1.0000   1.0000   1.0000   1.0000   1.0000
     1.0000   0.9874   0.9873   0.0004   0.0004   0.0000   0.0000   0.0000
     0.0000   0.0000   0.0000   0.0000   0.0000   0.0000   0.0000   0.0000
     0.0000   0.0000   0.0000   0.0000   0.0000   0.0000   0.0000   0.0000
     0.0000   0.0000   0.0000   0.0000   0.0000   0.0000   0.0000   0.0000
     0.0000   0.0000   0.0000   0.0000   0.0000   0.0000   0.0000   0.0000
     0.0000   0.0000   0.0000   0.0000   0.0000   0.0000   0.0000   0.0000
     0.0000   0.0000   0.0000   0.0000   0.0000   0.0000   0.0000   0.0000

          k = 0.0000-0.5774 0.0000 (  3300 PWs)   bands (ev):

   -83.2926 -83.0870 -83.0717 -78.6175 -78.5619 -78.5464 -47.4548 -47.4206
   -47.2461 -47.2235 -47.2073 -47.1265 -47.0667 -47.0290 -47.0106 -43.0205
   -42.9491 -42.8828 -42.8286 -42.7718 -42.7687 -42.7398 -42.7172 -42.6969
   -11.1628 -11.1265 -11.1058 -11.1011 -11.0956 -11.0857 -11.0714 -11.0565
   -11.0398 -11.0310 -11.0280 -11.0169 -11.0056 -11.0041 -10.9945 -10.9903
   -10.9851 -10.9819 -10.9747 -10.9723 -10.9661 -10.9579 -10.9483 -10.9430
   -10.9294 -10.9235 -10.9188 -10.9065 -10.9045 -10.8885  -8.0569  -8.0193
    -7.8526  -7.6961  -7.6257  -7.3418  -7.2881  -7.2456  -7.1158  -7.0247
    -6.9802  -6.9756  -6.8745  -6.8140  -6.6885  -6.6461  -6.5462  -6.4532
     1.0100   1.2184   1.2398   1.5029   1.5687   1.7481   5.1265   5.3925
     5.4367   5.5127   5.7350   5.7893   5.8971   5.9411   5.9868   6.0811
     6.1079   6.1920   6.2514   6.4004   6.5604   6.5695   6.6915   6.7514
     6.8746   6.9029   7.0120   7.0150   7.1622   7.2156   7.3226   7.4146
     7.5332   7.5729   7.7346   7.7846   7.8205   7.8444   7.9815   8.0235
     8.0623   8.1525   8.2099   8.2528   8.3264   8.3449   8.4547   8.5020
     8.5560   8.6221   8.6259   8.7665   8.9761   9.0372   9.1224   9.1487
     9.2327   9.2494   9.2890   9.3751   9.4191   9.4747   9.5735   9.7075
    10.0256  10.1020  10.1442  10.2001  10.2896  10.4502  10.5463  10.8146
    10.8793  10.9075  11.0456  11.6217  11.7103  11.7296  11.7938  11.8618
    11.9521  12.1195  12.1926  12.2967  12.8011  12.9794  13.0121  13.1279
    13.1976  13.5659  14.3922  15.0848  15.1349  15.3541  15.4398  15.4957
    15.5296  15.5952  15.6752  16.7582  16.8319  16.9254  16.9826  17.0491
    17.1291  17.2117  17.2748  17.3588  20.0749  20.2623  20.5633  21.0717
    21.1812  21.3120  21.7724  22.0007  22.1278  22.4431  22.4788  22.5074
    22.6266  22.6813  23.0615  23.1204  23.3449  23.3988  23.4988  23.5623

     occupation numbers 
     1.0000   1.0000   1.0000   1.0000   1.0000   1.0000   1.0000   1.0000
     1.0000   1.0000   1.0000   1.0000   1.0000   1.0000   1.0000   1.0000
     1.0000   1.0000   1.0000   1.0000   1.0000   1.0000   1.0000   1.0000
     1.0000   1.0000   1.0000   1.0000   1.0000   1.0000   1.0000   1.0000
     1.0000   1.0000   1.0000   1.0000   1.0000   1.0000   1.0000   1.0000
     1.0000   1.0000   1.0000   1.0000   1.0000   1.0000   1.0000   1.0000
     1.0000   1.0000   1.0000   1.0000   1.0000   1.0000   1.0000   1.0000
     1.0000   1.0000   1.0000   1.0000   1.0000   1.0000   1.0000   1.0000
     1.0000   1.0000   1.0000   1.0000   1.0000   1.0000   1.0000   1.0000
     1.0000   1.0000   1.0000   1.0000   1.0000   1.0000   1.0000   1.0000
     1.0000   1.0000   1.0000   1.0000   1.0000   1.0000   1.0000   1.0000
     1.0000   1.0000   1.0000   1.0000   1.0000   1.0000   1.0000   1.0000
     1.0000   1.0000   1.0000   1.0000   1.0000   1.0000   1.0000   1.0000
     1.0000   1.0000   1.0000   1.0000   1.0000   1.0000   1.0000   1.0000
     1.0000   1.0000   1.0000   1.0000   1.0000   1.0000   1.0000   1.0000
     1.0000   1.0000   1.0000   1.0000   1.0000   1.0000   1.0000   1.0000
     1.0000   1.0000   1.0000   1.0000   1.0000   1.0000   1.0000   1.0000
     1.0000   1.0000   1.0000   1.0000   1.0000   1.0000   1.0000   1.0000
     1.0000   1.0000   0.9998   0.0074   0.0004   0.0002   0.0000   0.0000
     0.0000   0.0000   0.0000   0.0000   0.0000   0.0000   0.0000   0.0000
     0.0000   0.0000   0.0000   0.0000   0.0000   0.0000   0.0000   0.0000
     0.0000   0.0000   0.0000   0.0000   0.0000   0.0000   0.0000   0.0000
     0.0000   0.0000   0.0000   0.0000   0.0000   0.0000   0.0000   0.0000
     0.0000   0.0000   0.0000   0.0000   0.0000   0.0000   0.0000   0.0000
     0.0000   0.0000   0.0000   0.0000   0.0000   0.0000   0.0000   0.0000

 ------ SPIN DOWN ----------


          k = 0.0000 0.0000 0.0000 (  3257 PWs)   bands (ev):

   -83.2578 -83.0580 -83.0226 -78.6060 -78.5255 -78.4772 -47.4000 -47.2400
   -47.2400 -47.2010 -47.1228 -46.9383 -46.9383 -46.8013 -46.8013 -42.9114
   -42.8320 -42.8320 -42.8284 -42.7551 -42.6089 -42.6089 -42.4423 -42.4422
   -11.1675 -11.1675 -11.1243 -11.1243 -11.0994 -11.0994 -11.0612 -11.0492
   -11.0412 -11.0412 -11.0261 -11.0261 -11.0209 -11.0189 -11.0189 -10.9963
   -10.9699 -10.9699 -10.9625 -10.9625 -10.9552 -10.9371 -10.9371 -10.9331
   -10.9237 -10.9237 -10.9057 -10.9057 -10.8881 -10.8881  -8.6405  -8.2989
    -8.1670  -7.5114  -7.4556  -7.1230  -7.1229  -6.9996  -6.9996  -6.9761
    -6.9053  -6.9053  -6.7877  -6.7876  -6.6129  -6.6129  -6.4336  -6.4336
     0.8945   1.0865   1.1436   1.8620   2.0002   2.6982   5.1006   5.1006
     5.2125   5.5327   5.5327   5.6104   5.6104   5.6556   5.8389   5.8389
     5.8693   6.1005   6.1531   6.1531   6.3440   6.4311   6.4311   6.5249
     6.5463   6.5463   6.6338   6.8397   6.8397   7.1606   7.2526   7.2526
     7.3288   7.6877   7.7935   7.7935   7.9910   7.9910   8.0541   8.0542
     8.1289   8.2853   8.4690   8.4690   8.5685   8.5686   8.5903   8.7045
     8.7677   8.7678   8.9063   8.9064   9.0775   9.0775   9.3324   9.4017
     9.4018   9.4466   9.4466   9.5281   9.5282   9.9193   9.9194  10.1591
    10.2767  10.2768  10.3802  10.5164  10.6280  10.7077  10.7077  10.7643
    10.8325  11.1740  11.1740  11.6988  11.6988  11.8863  11.8863  11.9741
    12.0293  12.0293  12.1436  12.2797  13.1068  13.1068  13.3844  13.3845
    13.8132  13.8132  15.1275  15.2420  15.3602  15.4003  16.4321  16.4321
    16.6212  16.6212  16.6633  16.6634  17.0230  17.1023  17.2692  17.2692
    17.3616  17.3617  17.7947  17.7947  18.2675  19.7424  19.8662  20.0696
    20.8391  20.8391  21.1295  21.2229  21.8535  21.8535  21.9956  21.9956
    22.2464  22.2465  23.0630  23.2313  23.2314  23.2722  23.3850  23.3893

     occupation numbers 
     1.0000   1.0000   1.0000   1.0000   1.0000   1.0000   1.0000   1.0000
     1.0000   1.0000   1.0000   1.0000   1.0000   1.0000   1.0000   1.0000
     1.0000   1.0000   1.0000   1.0000   1.0000   1.0000   1.0000   1.0000
     1.0000   1.0000   1.0000   1.0000   1.0000   1.0000   1.0000   1.0000
     1.0000   1.0000   1.0000   1.0000   1.0000   1.0000   1.0000   1.0000
     1.0000   1.0000   1.0000   1.0000   1.0000   1.0000   1.0000   1.0000
     1.0000   1.0000   1.0000   1.0000   1.0000   1.0000   1.0000   1.0000
     1.0000   1.0000   1.0000   1.0000   1.0000   1.0000   1.0000   1.0000
     1.0000   1.0000   1.0000   1.0000   1.0000   1.0000   1.0000   1.0000
     1.0000   1.0000   1.0000   1.0000   1.0000   1.0000   1.0000   1.0000
     1.0000   1.0000   1.0000   1.0000   1.0000   1.0000   1.0000   1.0000
     1.0000   1.0000   1.0000   1.0000   1.0000   1.0000   1.0000   1.0000
     1.0000   1.0000   1.0000   1.0000   1.0000   1.0000   1.0000   1.0000
     1.0000   1.0000   1.0000   1.0000   1.0000   1.0000   1.0000   1.0000
     1.0000   1.0000   1.0000   1.0000   1.0000   1.0000   1.0000   1.0000
     1.0000   1.0000   1.0000   1.0000   1.0000   1.0000   1.0000   1.0000
     1.0000   1.0000   1.0000   1.0000   1.0000   1.0000   1.0000   1.0000
     1.0000   1.0000   1.0000   1.0000   1.0000   1.0000   1.0000   1.0000
     1.0000   0.9867   0.9866   0.0006   0.0006   0.0000   0.0000   0.0000
     0.0000   0.0000   0.0000   0.0000   0.0000   0.0000   0.0000   0.0000
     0.0000   0.0000   0.0000   0.0000   0.0000   0.0000   0.0000   0.0000
     0.0000   0.0000   0.0000   0.0000   0.0000   0.0000   0.0000   0.0000
     0.0000   0.0000   0.0000   0.0000   0.0000   0.0000   0.0000   0.0000
     0.0000   0.0000   0.0000   0.0000   0.0000   0.0000   0.0000   0.0000
     0.0000   0.0000   0.0000   0.0000   0.0000   0.0000   0.0000   0.0000

          k = 0.0000-0.5774 0.0000 (  3300 PWs)   bands (ev):

   -83.2851 -83.0980 -83.0659 -78.6205 -78.5700 -78.5245 -47.4502 -47.4128
   -47.2484 -47.2173 -47.2018 -47.1284 -47.0766 -47.0532 -46.9891 -43.0197
   -42.9519 -42.8769 -42.8299 -42.7719 -42.7637 -42.7328 -42.7247 -42.6762
   -11.1617 -11.1261 -11.1071 -11.0990 -11.0938 -11.0845 -11.0751 -11.0559
   -11.0389 -11.0361 -11.0261 -11.0120 -11.0045 -11.0032 -10.9955 -10.9893
   -10.9886 -10.9810 -10.9753 -10.9708 -10.9687 -10.9606 -10.9456 -10.9414
   -10.9309 -10.9251 -10.9185 -10.9066 -10.9052 -10.8893  -8.0494  -8.0177
    -7.8532  -7.6970  -7.6267  -7.3376  -7.2870  -7.2408  -7.1156  -7.0220
    -6.9788  -6.9699  -6.8809  -6.8154  -6.6922  -6.6509  -6.5475  -6.4556
     1.0119   1.2173   1.2401   1.5038   1.5681   1.7468   5.1315   5.3989
     5.4389   5.5182   5.7370   5.7800   5.9030   5.9451   5.9880   6.0805
     6.1077   6.1979   6.2512   6.3874   6.5604   6.5709   6.6952   6.7518
     6.8761   6.9037   7.0108   7.0180   7.1595   7.2181   7.3264   7.4158
     7.5347   7.5712   7.7347   7.7772   7.8205   7.8448   7.9812   8.0257
     8.0625   8.1494   8.2124   8.2557   8.3246   8.3448   8.4567   8.5028
     8.5553   8.6221   8.6264   8.7622   8.9744   9.0377   9.1219   9.1478
     9.2315   9.2471   9.2867   9.3810   9.4187   9.4787   9.5768   9.7090
    10.0229  10.1015  10.1450  10.2007  10.2912  10.4512  10.5505  10.8196
    10.8845  10.9037  11.0463  11.6173  11.7100  11.7229  11.7957  11.8562
    11.9455  12.1296  12.2162  12.2910  12.8074  12.9816  13.0053  13.1343
    13.1998  13.5710  14.3935  15.0862  15.1371  15.3543  15.4385  15.4952
    15.5312  15.5925  15.6749  16.7605  16.8301  16.9248  16.9845  17.0473
    17.1327  17.2098  17.2721  17.3575  20.0820  20.2647  20.5640  21.0673
    21.1803  21.3104  21.7733  22.0025  22.1292  22.4438  22.4821  22.5073
    22.6261  22.6771  23.0627  23.1223  23.3462  23.3965  23.4998  23.5598

     occupation numbers 
     1.0000   1.0000   1.0000   1.0000   1.0000   1.0000   1.0000   1.0000
     1.0000   1.0000   1.0000   1.0000   1.0000   1.0000   1.0000   1.0000
     1.0000   1.0000   1.0000   1.0000   1.0000   1.0000   1.0000   1.0000
     1.0000   1.0000   1.0000   1.0000   1.0000   1.0000   1.0000   1.0000
     1.0000   1.0000   1.0000   1.0000   1.0000   1.0000   1.0000   1.0000
     1.0000   1.0000   1.0000   1.0000   1.0000   1.0000   1.0000   1.0000
     1.0000   1.0000   1.0000   1.0000   1.0000   1.0000   1.0000   1.0000
     1.0000   1.0000   1.0000   1.0000   1.0000   1.0000   1.0000   1.0000
     1.0000   1.0000   1.0000   1.0000   1.0000   1.0000   1.0000   1.0000
     1.0000   1.0000   1.0000   1.0000   1.0000   1.0000   1.0000   1.0000
     1.0000   1.0000   1.0000   1.0000   1.0000   1.0000   1.0000   1.0000
     1.0000   1.0000   1.0000   1.0000   1.0000   1.0000   1.0000   1.0000
     1.0000   1.0000   1.0000   1.0000   1.0000   1.0000   1.0000   1.0000
     1.0000   1.0000   1.0000   1.0000   1.0000   1.0000   1.0000   1.0000
     1.0000   1.0000   1.0000   1.0000   1.0000   1.0000   1.0000   1.0000
     1.0000   1.0000   1.0000   1.0000   1.0000   1.0000   1.0000   1.0000
     1.0000   1.0000   1.0000   1.0000   1.0000   1.0000   1.0000   1.0000
     1.0000   1.0000   1.0000   1.0000   1.0000   1.0000   1.0000   1.0000
     1.0000   1.0000   0.9998   0.0084   0.0004   0.0002   0.0000   0.0000
     0.0000   0.0000   0.0000   0.0000   0.0000   0.0000   0.0000   0.0000
     0.0000   0.0000   0.0000   0.0000   0.0000   0.0000   0.0000   0.0000
     0.0000   0.0000   0.0000   0.0000   0.0000   0.0000   0.0000   0.0000
     0.0000   0.0000   0.0000   0.0000   0.0000   0.0000   0.0000   0.0000
     0.0000   0.0000   0.0000   0.0000   0.0000   0.0000   0.0000   0.0000
     0.0000   0.0000   0.0000   0.0000   0.0000   0.0000   0.0000   0.0000

     the Fermi energy is    11.3872 ev

!    total energy              =   -3175.45574621 Ry
     estimated scf accuracy    <       0.00062814 Ry
     smearing contrib. (-TS)   =      -0.00051133 Ry
     internal energy E=F+TS    =   -3175.45523488 Ry

     The total energy is F=E-TS. E is the sum of the following terms:
     one-electron contribution =   -1269.94573394 Ry
     hartree contribution      =     811.60032771 Ry
     xc contribution           =    -689.46069920 Ry
     ewald contribution        =   -2027.64912945 Ry

     total magnetization       =    -0.00 Bohr mag/cell
     absolute magnetization    =    27.32 Bohr mag/cell

     convergence has been achieved in  21 iterations

     Writing output data file /home/aldair1809/Documentos/QE/4BFO/UHUBBARD/temp/pseudo_o_pbe_v1.2.uspp.F.UPF_ecutwfc_18.in/bifeo3-scf.save/

     init_run     :      5.55s CPU      5.66s WALL (       1 calls)
     electrons    :    427.39s CPU    435.78s WALL (       1 calls)

     Called by init_run:
     wfcinit      :      4.87s CPU      4.92s WALL (       1 calls)
     wfcinit:atom :      0.01s CPU      0.01s WALL (       4 calls)
     wfcinit:wfcr :      4.79s CPU      4.84s WALL (       4 calls)
     potinit      :      0.11s CPU      0.12s WALL (       1 calls)
     hinit0       :      0.34s CPU      0.35s WALL (       1 calls)

     Called by electrons:
     c_bands      :    389.80s CPU    397.59s WALL (      21 calls)
     sum_band     :     32.17s CPU     32.74s WALL (      21 calls)
     v_of_rho     :      0.65s CPU      0.67s WALL (      22 calls)
     v_h          :      0.01s CPU      0.02s WALL (      22 calls)
     v_xc         :      0.64s CPU      0.66s WALL (      22 calls)
     newd         :      4.82s CPU      4.87s WALL (      22 calls)
     mix_rho      :      0.14s CPU      0.14s WALL (      21 calls)

     Called by c_bands:
     init_us_2    :      0.61s CPU      0.62s WALL (     172 calls)
     ccgdiagg     :    293.81s CPU    300.59s WALL (      84 calls)
     wfcrot       :    100.21s CPU    101.25s WALL (      84 calls)

     Called by sum_band:
     sum_band:wei :      0.02s CPU      0.02s WALL (      21 calls)
     sum_band:loo :     26.02s CPU     26.56s WALL (      21 calls)
     sum_band:buf :      0.11s CPU      0.11s WALL (      84 calls)
     sum_band:ini :      0.30s CPU      0.30s WALL (      84 calls)
     sum_band:cal :     20.56s CPU     20.65s WALL (      84 calls)
     sum_band:bec :      0.43s CPU      0.44s WALL (      84 calls)
     addusdens    :      5.85s CPU      5.87s WALL (      21 calls)
     addusd:skk   :      0.03s CPU      0.03s WALL (      84 calls)
     addusd:dgemm :      2.71s CPU      2.73s WALL (     168 calls)
     addusd:qvan2 :      3.03s CPU      3.03s WALL (     168 calls)

     Called by *cgdiagg:
     h_psi        :    167.87s CPU    173.14s WALL (   35580 calls)
     s_psi        :    108.03s CPU    109.03s WALL (   71076 calls)

     Called by h_psi:
     h_psi:calbec :     69.26s CPU     71.97s WALL (   35580 calls)
     vloc_psi     :     32.74s CPU     34.95s WALL (   35580 calls)
     add_vuspsi   :     65.10s CPU     65.53s WALL (   35580 calls)
     hs_1psi      :    162.37s CPU    167.20s WALL (   35496 calls)
     s_1psi       :     90.67s CPU     92.22s WALL (   35496 calls)

     General routines
     calbec       :    135.81s CPU    139.95s WALL (   71160 calls)
     fft          :      0.21s CPU      0.23s WALL (     460 calls)
     ffts         :      0.02s CPU      0.02s WALL (      42 calls)
     fftw         :     32.95s CPU     35.34s WALL (  121424 calls)

     Parallel routines
     fft_scatt_xy :      4.05s CPU      4.34s WALL (  121926 calls)
     fft_scatt_yz :      7.48s CPU      8.12s WALL (  121926 calls)

     PWSCF        :   7m13.38s CPU   7m21.98s WALL


   This run was terminated on:  21:21: 1  28Sep2024            

=------------------------------------------------------------------------------=
   JOB DONE.
=------------------------------------------------------------------------------=
