
     Program PWSCF v.6.7MaX starts on 29Oct2024 at 21:26:54 

     This program is part of the open-source Quantum ESPRESSO suite
     for quantum simulation of materials; please cite
         "P. Giannozzi et al., J. Phys.:Condens. Matter 21 395502 (2009);
         "P. Giannozzi et al., J. Phys.:Condens. Matter 29 465901 (2017);
          URL http://www.quantum-espresso.org", 
     in publications or presentations arising from this work. More details at
     http://www.quantum-espresso.org/quote

     Parallel version (MPI), running on     6 processors

     MPI processes distributed on     1 nodes
     R & G space division:  proc/nbgrp/npool/nimage =       6
     Waiting for input...
     Reading input from standard input

     Current dimensions of program PWSCF are:
     Max number of different atomic species (ntypx) = 10
     Max number of k-points (npk) =  40000
     Max angular momentum in pseudopotentials (lmaxx) =  3
     Message from routine iosys:
     wrong startingpot: use default (1)

     Atomic positions and unit cell read from directory:
     /home/aldair1809/Documentos/QE/4BFO/temp_tipoA/nscf/bifeo3.save/
     Atomic positions from file used, from input discarded


     Subspace diagonalization in iterative solution of the eigenvalue problem:
     one sub-group per band group will be used
     scalapack distributed-memory algorithm (size of sub-group:  2*  2 procs)


     Parallelization info
     --------------------
     sticks:   dense  smooth     PW     G-vecs:    dense   smooth      PW
     Min         401     200     60                39339    13882    2296
     Max         402     201     61                39350    13889    2305
     Sum        2407    1201    361               236061    83311   13797



     bravais-lattice index     =            4
     lattice parameter (alat)  =      10.4531  a.u.
     unit-cell volume          =    2440.6662 (a.u.)^3
     number of atoms/cell      =           30
     number of atomic types    =            4
     number of electrons       =       294.00
     number of Kohn-Sham states=          176
     kinetic-energy cutoff     =      40.0000  Ry
     charge density cutoff     =     320.0000  Ry
     Exchange-correlation=  SLA  PW   PBX  PBC
                           (   1   4   3   4   0   0   0)

     celldm(1)=  10.453102  celldm(2)=   0.000000  celldm(3)=   2.467415
     celldm(4)=   0.000000  celldm(5)=   0.000000  celldm(6)=   0.000000

     crystal axes: (cart. coord. in units of alat)
               a(1) = (   1.000000   0.000000   0.000000 )  
               a(2) = (  -0.500000   0.866025   0.000000 )  
               a(3) = (   0.000000   0.000000   2.467415 )  

     reciprocal axes: (cart. coord. in units 2 pi/alat)
               b(1) = (  1.000000  0.577350 -0.000000 )  
               b(2) = (  0.000000  1.154701  0.000000 )  
               b(3) = (  0.000000 -0.000000  0.405282 )  


     PseudoPot. # 1 for O  read from file:
     /home/aldair1809/Programas/QE/q-e-qe-7.3/pseudo/o_pbe_v1.2.uspp.F.UPF
     MD5 check sum: 734c27235a0248c51dbae37a1fbe46ec
     Pseudo is Ultrasoft + core correction, Zval =  6.0
     Generated by new atomic code, or converted to UPF format
     Using radial grid of  737 points,  5 beta functions with: 
                l(1) =   0
                l(2) =   0
                l(3) =   1
                l(4) =   1
                l(5) =   2
     Q(r) pseudized with  8 coefficients,  rinner =    0.900   0.900   0.900
                                                       0.900   0.900

     PseudoPot. # 2 for Bi read from file:
     /home/aldair1809/Programas/QE/q-e-qe-7.3/pseudo/bi_pbe_v1.uspp.F.UPF
     MD5 check sum: cceb9f28ec65b6d7ff33140f5b0b1758
     Pseudo is Ultrasoft + core correction, Zval = 15.0
     Generated by new atomic code, or converted to UPF format
     Using radial grid of  899 points,  6 beta functions with: 
                l(1) =   0
                l(2) =   0
                l(3) =   1
                l(4) =   1
                l(5) =   2
                l(6) =   2
     Q(r) pseudized with  6 coefficients,  rinner =    1.000   1.000   1.000
                                                       1.000   1.000

     PseudoPot. # 3 for Fe read from file:
     /home/aldair1809/Programas/QE/q-e-qe-7.3/pseudo/fe_pbe_v1.5.uspp.F.UPF
     MD5 check sum: a130daea23fe5165f5d574ae7f82ed95
     Pseudo is Ultrasoft + core correction, Zval = 16.0
     Generated by new atomic code, or converted to UPF format
     Using radial grid of  861 points,  6 beta functions with: 
                l(1) =   0
                l(2) =   0
                l(3) =   1
                l(4) =   1
                l(5) =   2
                l(6) =   2
     Q(r) pseudized with  8 coefficients,  rinner =    1.000   1.000   1.000
                                                       1.000   1.000

     PseudoPot. # 4 for Fe read from file:
     /home/aldair1809/Programas/QE/q-e-qe-7.3/pseudo/fe_pbe_v1.5.uspp.F.UPF
     MD5 check sum: a130daea23fe5165f5d574ae7f82ed95
     Pseudo is Ultrasoft + core correction, Zval = 16.0
     Generated by new atomic code, or converted to UPF format
     Using radial grid of  861 points,  6 beta functions with: 
                l(1) =   0
                l(2) =   0
                l(3) =   1
                l(4) =   1
                l(5) =   2
                l(6) =   2
     Q(r) pseudized with  8 coefficients,  rinner =    1.000   1.000   1.000
                                                       1.000   1.000

     atomic species   valence    mass     pseudopotential
        O              6.00    15.99940     O ( 1.00)
        Bi            15.00   208.98040     Bi( 1.00)
        Fe1           16.00    55.84500     Fe( 1.00)
        Fe2           16.00    55.84500     Fe( 1.00)

     Starting magnetic structure 
     atomic species   magnetization
        O            0.000
        Bi           0.000
        Fe1         -0.800
        Fe2          0.800


     Simplified LDA+U calculation (l_max = 2) with parameters (eV):
     atomic species    L          U    alpha       J0     beta
        Fe1            2     4.1000   0.0000   0.0000   0.0000
        Fe2            2     4.1000   0.0000   0.0000   0.0000



     No symmetry found


                                    s                        frac. trans.

      isym =  1     identity                                     

 cryst.   s( 1) = (     1          0          0      )
                  (     0          1          0      )
                  (     0          0          1      )

 cart.    s( 1) = (  1.0000000  0.0000000  0.0000000 )
                  (  0.0000000  1.0000000  0.0000000 )
                  (  0.0000000  0.0000000  1.0000000 )


     point group C_1 (1)    
     there are  1 classes
     the character table:

       E    
A      1.00

     the symmetry operations in each class and the name of the first element:

     E        1
          identity                                               

   Cartesian axes

     site n.     atom                  positions (alat units)
         1           Fe1 tau(   1) = (   0.0000000   0.0000000   1.9173194  )
         2           Fe1 tau(   2) = (  -0.0000005   0.5773506   2.3408318  )
         3           Fe1 tau(   3) = (   0.5000005   0.2886748   1.4987656  )
         4           Fe2 tau(   4) = (   0.5000005   0.2886748   0.2650306  )
         5           Fe2 tau(   5) = (   0.0000000   0.0000000   0.6836385  )
         6           Fe2 tau(   6) = (  -0.0000005   0.5773506   1.1071829  )
         7           Bi  tau(   7) = (   0.5000005   0.2886748   2.0704508  )
         8           Bi  tau(   8) = (  -0.0000005   0.5773506   1.6683657  )
         9           Bi  tau(   9) = (  -0.0000005   0.5773506   0.4345959  )
        10           Bi  tau(  10) = (   0.0000000   0.0000000   0.0112133  )
        11           Bi  tau(  11) = (   0.0000000   0.0000000   1.2449306  )
        12           Bi  tau(  12) = (   0.5000005   0.2886748   0.8366940  )
        13           O   tau(  13) = (  -0.3015234   0.6617768   2.1713309  )
        14           O   tau(  14) = (   0.0776467   0.2740092   2.1713309  )
        15           O   tau(  15) = (   0.2238783   0.7962639   2.1713309  )
        16           O   tau(  16) = (   0.4195843   0.5622547   1.7587968  )
        17           O   tau(  17) = (   0.3032805   0.0822442   1.7587968  )
        18           O   tau(  18) = (   0.7771337   0.2215274   1.7587968  )
        19           O   tau(  19) = (   0.6967279   0.0822438   0.5250654  )
        20           O   tau(  20) = (   0.5804103   0.5622631   0.5250654  )
        21           O   tau(  21) = (   0.2228602   0.2215194   0.5250654  )
        22           O   tau(  22) = (  -0.0757596   0.8510068   0.1130324  )
        23           O   tau(  23) = (  -0.1991137   0.3749123   0.1130324  )
        24           O   tau(  24) = (   0.2748733   0.5061317   0.1130324  )
        25           O   tau(  25) = (   0.1991050   0.3749017   1.3467955  )
        26           O   tau(  26) = (   0.0757731   0.8510045   1.3467955  )
        27           O   tau(  27) = (  -0.2748781   0.5061446   1.3467955  )
        28           O   tau(  28) = (  -0.0776631   0.2740052   0.9376559  )
        29           O   tau(  29) = (   0.3015366   0.6617637   0.9376559  )
        30           O   tau(  30) = (  -0.2238720   0.7962811   0.9376559  )

   Crystallographic axes

     site n.     atom                  positions (cryst. coord.)
         1           Fe1 tau(   1) = (  0.0000000  0.0000000  0.7770559  )
         2           Fe1 tau(   2) = (  0.3333330  0.6666670  0.9486980  )
         3           Fe1 tau(   3) = (  0.6666670  0.3333330  0.6074234  )
         4           Fe2 tau(   4) = (  0.6666670  0.3333330  0.1074122  )
         5           Fe2 tau(   5) = (  0.0000000  0.0000000  0.2770667  )
         6           Fe2 tau(   6) = (  0.3333330  0.6666670  0.4487218  )
         7           Bi  tau(   7) = (  0.6666670  0.3333330  0.8391174  )
         8           Bi  tau(   8) = (  0.3333330  0.6666670  0.6761593  )
         9           Bi  tau(   9) = (  0.3333330  0.6666670  0.1761341  )
        10           Bi  tau(  10) = (  0.0000000  0.0000000  0.0045446  )
        11           Bi  tau(  11) = (  0.0000000  0.0000000  0.5045485  )
        12           Bi  tau(  12) = (  0.6666670  0.3333330  0.3390974  )
        13           O   tau(  13) = (  0.0805536  0.7641541  0.8800023  )
        14           O   tau(  14) = (  0.2358459  0.3163985  0.8800023  )
        15           O   tau(  15) = (  0.6836015  0.9194464  0.8800023  )
        16           O   tau(  16) = (  0.7442022  0.6492358  0.7128095  )
        17           O   tau(  17) = (  0.3507642  0.0949674  0.7128095  )
        18           O   tau(  18) = (  0.9050326  0.2557978  0.7128095  )
        19           O   tau(  19) = (  0.7442114  0.0949669  0.2127998  )
        20           O   tau(  20) = (  0.9050331  0.6492455  0.2127998  )
        21           O   tau(  21) = (  0.3507545  0.2557886  0.2127998  )
        22           O   tau(  22) = (  0.4155694  0.9826580  0.0458101  )
        23           O   tau(  23) = (  0.0173420  0.4329115  0.0458101  )
        24           O   tau(  24) = (  0.5670885  0.5844306  0.0458101  )
        25           O   tau(  25) = (  0.4155546  0.4328992  0.5458326  )
        26           O   tau(  26) = (  0.5671008  0.9826554  0.5458326  )
        27           O   tau(  27) = (  0.0173446  0.5844454  0.5458326  )
        28           O   tau(  28) = (  0.0805338  0.3163939  0.3800155  )
        29           O   tau(  29) = (  0.6836061  0.7641389  0.3800155  )
        30           O   tau(  30) = (  0.2358611  0.9194662  0.3800155  )

     number of k points=    76 (tetrahedron method)
                       cart. coord. in units 2pi/alat
        k(    1) = (   0.0000000   0.0000000   0.0000000), wk =   0.0069444
        k(    2) = (   0.0000000   0.0000000   0.1013206), wk =   0.0138889
        k(    3) = (   0.0000000   0.0000000  -0.2026412), wk =   0.0069444
        k(    4) = (   0.0000000   0.1924501   0.0000000), wk =   0.0138889
        k(    5) = (   0.0000000   0.1924501   0.1013206), wk =   0.0138889
        k(    6) = (   0.0000000   0.1924501  -0.2026412), wk =   0.0138889
        k(    7) = (   0.0000000   0.1924501  -0.1013206), wk =   0.0138889
        k(    8) = (   0.0000000   0.3849002   0.0000000), wk =   0.0138889
        k(    9) = (   0.0000000   0.3849002   0.1013206), wk =   0.0138889
        k(   10) = (   0.0000000   0.3849002  -0.2026412), wk =   0.0138889
        k(   11) = (   0.0000000   0.3849002  -0.1013206), wk =   0.0138889
        k(   12) = (   0.0000000  -0.5773503   0.0000000), wk =   0.0069444
        k(   13) = (   0.0000000  -0.5773503   0.1013206), wk =   0.0138889
        k(   14) = (   0.0000000  -0.5773503  -0.2026412), wk =   0.0069444
        k(   15) = (   0.1666667   0.0962250   0.0000000), wk =   0.0138889
        k(   16) = (   0.1666667   0.0962250   0.1013206), wk =   0.0138889
        k(   17) = (   0.1666667   0.0962250  -0.2026412), wk =   0.0138889
        k(   18) = (   0.1666667   0.0962250  -0.1013206), wk =   0.0138889
        k(   19) = (   0.1666667   0.2886751   0.0000000), wk =   0.0138889
        k(   20) = (   0.1666667   0.2886751   0.1013206), wk =   0.0138889
        k(   21) = (   0.1666667   0.2886751  -0.2026412), wk =   0.0138889
        k(   22) = (   0.1666667   0.2886751  -0.1013206), wk =   0.0138889
        k(   23) = (   0.1666667   0.4811252   0.0000000), wk =   0.0138889
        k(   24) = (   0.1666667   0.4811252   0.1013206), wk =   0.0138889
        k(   25) = (   0.1666667   0.4811252  -0.2026412), wk =   0.0138889
        k(   26) = (   0.1666667   0.4811252  -0.1013206), wk =   0.0138889
        k(   27) = (   0.1666667  -0.4811252   0.0000000), wk =   0.0138889
        k(   28) = (   0.1666667  -0.4811252   0.1013206), wk =   0.0138889
        k(   29) = (   0.1666667  -0.4811252  -0.2026412), wk =   0.0138889
        k(   30) = (   0.1666667  -0.4811252  -0.1013206), wk =   0.0138889
        k(   31) = (   0.1666667  -0.2886751   0.0000000), wk =   0.0138889
        k(   32) = (   0.1666667  -0.2886751   0.1013206), wk =   0.0138889
        k(   33) = (   0.1666667  -0.2886751  -0.2026412), wk =   0.0138889
        k(   34) = (   0.1666667  -0.2886751  -0.1013206), wk =   0.0138889
        k(   35) = (   0.1666667  -0.0962250   0.0000000), wk =   0.0138889
        k(   36) = (   0.1666667  -0.0962250   0.1013206), wk =   0.0138889
        k(   37) = (   0.1666667  -0.0962250  -0.2026412), wk =   0.0138889
        k(   38) = (   0.1666667  -0.0962250  -0.1013206), wk =   0.0138889
        k(   39) = (   0.3333333   0.1924501   0.0000000), wk =   0.0138889
        k(   40) = (   0.3333333   0.1924501   0.1013206), wk =   0.0138889
        k(   41) = (   0.3333333   0.1924501  -0.2026412), wk =   0.0138889
        k(   42) = (   0.3333333   0.1924501  -0.1013206), wk =   0.0138889
        k(   43) = (   0.3333333   0.3849002   0.0000000), wk =   0.0138889
        k(   44) = (   0.3333333   0.3849002   0.1013206), wk =   0.0138889
        k(   45) = (   0.3333333   0.3849002  -0.2026412), wk =   0.0138889
        k(   46) = (   0.3333333   0.3849002  -0.1013206), wk =   0.0138889
        k(   47) = (   0.3333333   0.5773503   0.0000000), wk =   0.0138889
        k(   48) = (   0.3333333   0.5773503   0.1013206), wk =   0.0138889
        k(   49) = (   0.3333333   0.5773503  -0.2026412), wk =   0.0138889
        k(   50) = (   0.3333333   0.5773503  -0.1013206), wk =   0.0138889
        k(   51) = (   0.3333333  -0.3849002   0.0000000), wk =   0.0138889
        k(   52) = (   0.3333333  -0.3849002   0.1013206), wk =   0.0138889
        k(   53) = (   0.3333333  -0.3849002  -0.2026412), wk =   0.0138889
        k(   54) = (   0.3333333  -0.3849002  -0.1013206), wk =   0.0138889
        k(   55) = (   0.3333333  -0.1924501   0.0000000), wk =   0.0138889
        k(   56) = (   0.3333333  -0.1924501   0.1013206), wk =   0.0138889
        k(   57) = (   0.3333333  -0.1924501  -0.2026412), wk =   0.0138889
        k(   58) = (   0.3333333  -0.1924501  -0.1013206), wk =   0.0138889
        k(   59) = (   0.3333333   0.0000000   0.0000000), wk =   0.0138889
        k(   60) = (   0.3333333   0.0000000   0.1013206), wk =   0.0138889
        k(   61) = (   0.3333333   0.0000000  -0.2026412), wk =   0.0138889
        k(   62) = (   0.3333333   0.0000000  -0.1013206), wk =   0.0138889
        k(   63) = (  -0.5000000  -0.2886751   0.0000000), wk =   0.0069444
        k(   64) = (  -0.5000000  -0.2886751   0.1013206), wk =   0.0138889
        k(   65) = (  -0.5000000  -0.2886751  -0.2026412), wk =   0.0069444
        k(   66) = (  -0.5000000  -0.0962250   0.0000000), wk =   0.0138889
        k(   67) = (  -0.5000000  -0.0962250   0.1013206), wk =   0.0138889
        k(   68) = (  -0.5000000  -0.0962250  -0.2026412), wk =   0.0138889
        k(   69) = (  -0.5000000  -0.0962250  -0.1013206), wk =   0.0138889
        k(   70) = (  -0.5000000   0.0962250   0.0000000), wk =   0.0138889
        k(   71) = (  -0.5000000   0.0962250   0.1013206), wk =   0.0138889
        k(   72) = (  -0.5000000   0.0962250  -0.2026412), wk =   0.0138889
        k(   73) = (  -0.5000000   0.0962250  -0.1013206), wk =   0.0138889
        k(   74) = (  -0.5000000  -0.8660254   0.0000000), wk =   0.0069444
        k(   75) = (  -0.5000000  -0.8660254   0.1013206), wk =   0.0138889
        k(   76) = (  -0.5000000  -0.8660254  -0.2026412), wk =   0.0069444

                       cryst. coord.
        k(    1) = (   0.0000000   0.0000000   0.0000000), wk =   0.0069444
        k(    2) = (   0.0000000   0.0000000   0.2500000), wk =   0.0138889
        k(    3) = (   0.0000000   0.0000000  -0.5000000), wk =   0.0069444
        k(    4) = (   0.0000000   0.1666667   0.0000000), wk =   0.0138889
        k(    5) = (   0.0000000   0.1666667   0.2500000), wk =   0.0138889
        k(    6) = (   0.0000000   0.1666667  -0.5000000), wk =   0.0138889
        k(    7) = (   0.0000000   0.1666667  -0.2500000), wk =   0.0138889
        k(    8) = (   0.0000000   0.3333333   0.0000000), wk =   0.0138889
        k(    9) = (   0.0000000   0.3333333   0.2500000), wk =   0.0138889
        k(   10) = (   0.0000000   0.3333333  -0.5000000), wk =   0.0138889
        k(   11) = (   0.0000000   0.3333333  -0.2500000), wk =   0.0138889
        k(   12) = (   0.0000000  -0.5000000   0.0000000), wk =   0.0069444
        k(   13) = (   0.0000000  -0.5000000   0.2500000), wk =   0.0138889
        k(   14) = (   0.0000000  -0.5000000  -0.5000000), wk =   0.0069444
        k(   15) = (   0.1666667   0.0000000   0.0000000), wk =   0.0138889
        k(   16) = (   0.1666667   0.0000000   0.2500000), wk =   0.0138889
        k(   17) = (   0.1666667   0.0000000  -0.5000000), wk =   0.0138889
        k(   18) = (   0.1666667   0.0000000  -0.2500000), wk =   0.0138889
        k(   19) = (   0.1666667   0.1666667   0.0000000), wk =   0.0138889
        k(   20) = (   0.1666667   0.1666667   0.2500000), wk =   0.0138889
        k(   21) = (   0.1666667   0.1666667  -0.5000000), wk =   0.0138889
        k(   22) = (   0.1666667   0.1666667  -0.2500000), wk =   0.0138889
        k(   23) = (   0.1666667   0.3333333   0.0000000), wk =   0.0138889
        k(   24) = (   0.1666667   0.3333333   0.2500000), wk =   0.0138889
        k(   25) = (   0.1666667   0.3333333  -0.5000000), wk =   0.0138889
        k(   26) = (   0.1666667   0.3333333  -0.2500000), wk =   0.0138889
        k(   27) = (   0.1666667  -0.5000000   0.0000000), wk =   0.0138889
        k(   28) = (   0.1666667  -0.5000000   0.2500000), wk =   0.0138889
        k(   29) = (   0.1666667  -0.5000000  -0.5000000), wk =   0.0138889
        k(   30) = (   0.1666667  -0.5000000  -0.2500000), wk =   0.0138889
        k(   31) = (   0.1666667  -0.3333333   0.0000000), wk =   0.0138889
        k(   32) = (   0.1666667  -0.3333333   0.2500000), wk =   0.0138889
        k(   33) = (   0.1666667  -0.3333333  -0.5000000), wk =   0.0138889
        k(   34) = (   0.1666667  -0.3333333  -0.2500000), wk =   0.0138889
        k(   35) = (   0.1666667  -0.1666667   0.0000000), wk =   0.0138889
        k(   36) = (   0.1666667  -0.1666667   0.2500000), wk =   0.0138889
        k(   37) = (   0.1666667  -0.1666667  -0.5000000), wk =   0.0138889
        k(   38) = (   0.1666667  -0.1666667  -0.2500000), wk =   0.0138889
        k(   39) = (   0.3333333   0.0000000   0.0000000), wk =   0.0138889
        k(   40) = (   0.3333333   0.0000000   0.2500000), wk =   0.0138889
        k(   41) = (   0.3333333   0.0000000  -0.5000000), wk =   0.0138889
        k(   42) = (   0.3333333   0.0000000  -0.2500000), wk =   0.0138889
        k(   43) = (   0.3333333   0.1666667   0.0000000), wk =   0.0138889
        k(   44) = (   0.3333333   0.1666667   0.2500000), wk =   0.0138889
        k(   45) = (   0.3333333   0.1666667  -0.5000000), wk =   0.0138889
        k(   46) = (   0.3333333   0.1666667  -0.2500000), wk =   0.0138889
        k(   47) = (   0.3333333   0.3333333   0.0000000), wk =   0.0138889
        k(   48) = (   0.3333333   0.3333333   0.2500000), wk =   0.0138889
        k(   49) = (   0.3333333   0.3333333  -0.5000000), wk =   0.0138889
        k(   50) = (   0.3333333   0.3333333  -0.2500000), wk =   0.0138889
        k(   51) = (   0.3333333  -0.5000000   0.0000000), wk =   0.0138889
        k(   52) = (   0.3333333  -0.5000000   0.2500000), wk =   0.0138889
        k(   53) = (   0.3333333  -0.5000000  -0.5000000), wk =   0.0138889
        k(   54) = (   0.3333333  -0.5000000  -0.2500000), wk =   0.0138889
        k(   55) = (   0.3333333  -0.3333333   0.0000000), wk =   0.0138889
        k(   56) = (   0.3333333  -0.3333333   0.2500000), wk =   0.0138889
        k(   57) = (   0.3333333  -0.3333333  -0.5000000), wk =   0.0138889
        k(   58) = (   0.3333333  -0.3333333  -0.2500000), wk =   0.0138889
        k(   59) = (   0.3333333  -0.1666667   0.0000000), wk =   0.0138889
        k(   60) = (   0.3333333  -0.1666667   0.2500000), wk =   0.0138889
        k(   61) = (   0.3333333  -0.1666667  -0.5000000), wk =   0.0138889
        k(   62) = (   0.3333333  -0.1666667  -0.2500000), wk =   0.0138889
        k(   63) = (  -0.5000000  -0.0000000   0.0000000), wk =   0.0069444
        k(   64) = (  -0.5000000  -0.0000000   0.2500000), wk =   0.0138889
        k(   65) = (  -0.5000000  -0.0000000  -0.5000000), wk =   0.0069444
        k(   66) = (  -0.5000000   0.1666667   0.0000000), wk =   0.0138889
        k(   67) = (  -0.5000000   0.1666667   0.2500000), wk =   0.0138889
        k(   68) = (  -0.5000000   0.1666667  -0.5000000), wk =   0.0138889
        k(   69) = (  -0.5000000   0.1666667  -0.2500000), wk =   0.0138889
        k(   70) = (  -0.5000000   0.3333333   0.0000000), wk =   0.0138889
        k(   71) = (  -0.5000000   0.3333333   0.2500000), wk =   0.0138889
        k(   72) = (  -0.5000000   0.3333333  -0.5000000), wk =   0.0138889
        k(   73) = (  -0.5000000   0.3333333  -0.2500000), wk =   0.0138889
        k(   74) = (  -0.5000000  -0.5000000   0.0000000), wk =   0.0069444
        k(   75) = (  -0.5000000  -0.5000000   0.2500000), wk =   0.0138889
        k(   76) = (  -0.5000000  -0.5000000  -0.5000000), wk =   0.0069444

     Dense  grid:   236061 G-vectors     FFT dimensions: (  60,  60, 150)

     Smooth grid:    83311 G-vectors     FFT dimensions: (  45,  45, 108)

     Dynamical RAM for                 wfc:       4.66 MB

     Dynamical RAM for     wfc (w. buffer):       4.66 MB

     Dynamical RAM for             U proj.:       0.80 MB

     Dynamical RAM for  U proj. (w. buff.):       0.80 MB

     Dynamical RAM for           str. fact:       2.40 MB

     Dynamical RAM for           local pot:       0.00 MB

     Dynamical RAM for          nlocal pot:      11.93 MB

     Dynamical RAM for                qrad:       5.74 MB

     Dynamical RAM for          rho,v,vnew:       7.72 MB

     Dynamical RAM for           G-vectors:       2.36 MB

     Dynamical RAM for          h,s,v(r/c):       0.35 MB

     Dynamical RAM for          <psi|beta>:       1.21 MB

     Dynamical RAM for      wfcinit/wfcrot:      11.77 MB

     Dynamical RAM for           addusdens:     123.07 MB

     Estimated static dynamical RAM per process >      42.73 MB

     Estimated max dynamical RAM per process >     165.80 MB

     Estimated total dynamical RAM >     994.83 MB

     Check: negative core charge=   -0.000014
     Generating pointlists ...
     new r_m :   0.1435 (alat units)  1.5003 (a.u.) for type    1
     new r_m :   0.1728 (alat units)  1.8065 (a.u.) for type    2
     new r_m :   0.1435 (alat units)  1.5003 (a.u.) for type    3
     new r_m :   0.1435 (alat units)  1.5003 (a.u.) for type    4

     The potential is recalculated from file :
     /home/aldair1809/Documentos/QE/4BFO/temp_tipoA/nscf/bifeo3.save/charge-density


     negative rho (up, down):  1.183E-01 1.183E-01
 --- in v_hubbard ---
Hubbard energy    0.6897
 -------
     Number of +U iterations with fixed ns =  0
     Starting occupations:
 --- enter write_ns ---
 LDA+U parameters:
U( 3)     =  4.10000000
U( 4)     =  4.10000000
atom    1   Tr[ns(na)] (up, down, total) =   0.96490  4.99063  5.95553
   spin  1
    eigenvalues: 
  0.104  0.120  0.120  0.311  0.311
    eigenvectors:
  1.000  0.000  0.000  0.000  0.000
  0.000  0.057  0.304  0.011  0.628
  0.000  0.304  0.057  0.628  0.011
  0.000  0.158  0.481  0.185  0.176
  0.000  0.481  0.158  0.176  0.185
    occupations:
  0.104 -0.000 -0.000 -0.000 -0.000
 -0.000  0.242 -0.000  0.055  0.073
 -0.000 -0.000  0.242  0.073 -0.055
 -0.000  0.055  0.073  0.189  0.000
 -0.000  0.073 -0.055  0.000  0.189
   spin  2
    eigenvalues: 
  0.998  0.998  0.998  0.999  0.999
    eigenvectors:
  0.000  0.000  1.000  0.000  0.000
  0.042  0.037  0.000  0.109  0.812
  0.037  0.042  0.000  0.812  0.109
  0.217  0.704  0.000  0.078  0.001
  0.704  0.217  0.000  0.001  0.078
    occupations:
  0.998 -0.000 -0.000 -0.000 -0.000
 -0.000  0.998 -0.000 -0.000 -0.000
 -0.000 -0.000  0.998 -0.000  0.000
 -0.000 -0.000 -0.000  0.998  0.000
 -0.000 -0.000  0.000  0.000  0.998
atomic mag. moment =  -4.02573
atom    2   Tr[ns(na)] (up, down, total) =   1.00214  4.98185  5.98399
   spin  1
    eigenvalues: 
  0.105  0.114  0.114  0.334  0.334
    eigenvectors:
  1.000  0.000  0.000  0.000  0.000
  0.000  0.292  0.046  0.436  0.226
  0.000  0.046  0.292  0.226  0.436
  0.000  0.061  0.601  0.001  0.336
  0.000  0.601  0.061  0.336  0.001
    occupations:
  0.105 -0.000 -0.000 -0.000 -0.000
 -0.000  0.260 -0.000 -0.066  0.080
 -0.000 -0.000  0.260  0.080  0.066
 -0.000 -0.066  0.080  0.188  0.000
 -0.000  0.080  0.066  0.000  0.188
   spin  2
    eigenvalues: 
  0.994  0.994  0.997  0.998  0.998
    eigenvectors:
  0.000  0.000  1.000  0.000  0.000
  0.332  0.357  0.000  0.236  0.076
  0.357  0.332  0.000  0.076  0.236
  0.000  0.311  0.000  0.058  0.631
  0.311  0.000  0.000  0.631  0.058
    occupations:
  0.997 -0.000 -0.000 -0.000 -0.000
 -0.000  0.995 -0.000  0.001 -0.001
 -0.000 -0.000  0.995 -0.001 -0.001
 -0.000  0.001 -0.001  0.997  0.000
 -0.000 -0.001 -0.001  0.000  0.997
atomic mag. moment =  -3.97971
atom    3   Tr[ns(na)] (up, down, total) =   1.02107  4.98156  6.00263
   spin  1
    eigenvalues: 
  0.123  0.123  0.139  0.318  0.318
    eigenvectors:
  0.000  0.000  1.000  0.000  0.000
  0.374  0.104  0.000  0.455  0.067
  0.104  0.374  0.000  0.067  0.455
  0.027  0.494  0.000  0.056  0.423
  0.494  0.027  0.000  0.423  0.056
    occupations:
  0.139 -0.000 -0.000 -0.000 -0.000
 -0.000  0.225 -0.000 -0.064  0.074
 -0.000 -0.000  0.225  0.074  0.064
 -0.000 -0.064  0.074  0.216  0.000
 -0.000  0.074  0.064  0.000  0.216
   spin  2
    eigenvalues: 
  0.994  0.994  0.997  0.998  0.998
    eigenvectors:
  0.000  0.000  1.000  0.000  0.000
  0.233  0.080  0.000  0.297  0.389
  0.080  0.233  0.000  0.389  0.297
  0.115  0.572  0.000  0.003  0.310
  0.572  0.115  0.000  0.310  0.003
    occupations:
  0.997 -0.000 -0.000 -0.000 -0.000
 -0.000  0.997 -0.000  0.001 -0.001
 -0.000 -0.000  0.997 -0.001 -0.001
 -0.000  0.001 -0.001  0.996  0.000
 -0.000 -0.001 -0.001  0.000  0.996
atomic mag. moment =  -3.96050
atom    4   Tr[ns(na)] (up, down, total) =   4.98157  1.02117  6.00274
   spin  1
    eigenvalues: 
  0.994  0.994  0.997  0.998  0.998
    eigenvectors:
  0.000  0.000  1.000  0.000  0.000
  0.001  0.312  0.000  0.000  0.686
  0.312  0.001  0.000  0.686  0.000
  0.189  0.498  0.000  0.109  0.204
  0.498  0.189  0.000  0.204  0.109
    occupations:
  0.997 -0.000 -0.000 -0.000 -0.000
 -0.000  0.997 -0.000 -0.001 -0.001
 -0.000 -0.000  0.997 -0.001  0.001
 -0.000 -0.001 -0.001  0.996  0.000
 -0.000 -0.001  0.001  0.000  0.996
   spin  2
    eigenvalues: 
  0.123  0.123  0.139  0.318  0.318
    eigenvectors:
  0.000  0.000  1.000  0.000  0.000
  0.038  0.441  0.000  0.014  0.508
  0.441  0.038  0.000  0.508  0.014
  0.152  0.369  0.000  0.195  0.283
  0.369  0.152  0.000  0.283  0.195
    occupations:
  0.139 -0.000 -0.000 -0.000 -0.000
 -0.000  0.225 -0.000  0.064  0.074
 -0.000 -0.000  0.225  0.074 -0.064
 -0.000  0.064  0.074  0.216  0.000
 -0.000  0.074 -0.064  0.000  0.216
atomic mag. moment =   3.96041
atom    5   Tr[ns(na)] (up, down, total) =   4.99064  0.96498  5.95562
   spin  1
    eigenvalues: 
  0.998  0.998  0.998  0.999  0.999
    eigenvectors:
  0.000  0.000  1.000  0.000  0.000
  0.074  0.005  0.000  0.198  0.723
  0.005  0.074  0.000  0.723  0.198
  0.208  0.713  0.000  0.044  0.035
  0.713  0.208  0.000  0.035  0.044
    occupations:
  0.998 -0.000 -0.000 -0.000 -0.000
 -0.000  0.998 -0.000  0.000 -0.000
 -0.000 -0.000  0.998 -0.000 -0.000
 -0.000  0.000 -0.000  0.998  0.000
 -0.000 -0.000 -0.000  0.000  0.998
   spin  2
    eigenvalues: 
  0.104  0.120  0.120  0.311  0.311
    eigenvectors:
  1.000  0.000  0.000  0.000  0.000
  0.000  0.321  0.039  0.503  0.137
  0.000  0.039  0.321  0.137  0.503
  0.000  0.058  0.582  0.009  0.351
  0.000  0.582  0.058  0.351  0.009
    occupations:
  0.104 -0.000 -0.000 -0.000 -0.000
 -0.000  0.242 -0.000 -0.055  0.073
 -0.000 -0.000  0.242  0.073  0.055
 -0.000 -0.055  0.073  0.189  0.000
 -0.000  0.073  0.055  0.000  0.189
atomic mag. moment =   4.02566
atom    6   Tr[ns(na)] (up, down, total) =   4.98186  1.00211  5.98397
   spin  1
    eigenvalues: 
  0.994  0.994  0.997  0.998  0.998
    eigenvectors:
  0.000  0.000  1.000  0.000  0.000
  0.000  0.689  0.000  0.029  0.282
  0.689  0.000  0.000  0.282  0.029
  0.146  0.165  0.000  0.131  0.558
  0.165  0.146  0.000  0.558  0.131
    occupations:
  0.997 -0.000 -0.000 -0.000 -0.000
 -0.000  0.995 -0.000 -0.001 -0.001
 -0.000 -0.000  0.995 -0.001  0.001
 -0.000 -0.001 -0.001  0.997  0.000
 -0.000 -0.001  0.001  0.000  0.997
   spin  2
    eigenvalues: 
  0.105  0.114  0.114  0.334  0.334
    eigenvectors:
  1.000  0.000  0.000  0.000  0.000
  0.000  0.048  0.289  0.005  0.657
  0.000  0.289  0.048  0.657  0.005
  0.000  0.149  0.513  0.172  0.166
  0.000  0.513  0.149  0.166  0.172
    occupations:
  0.105 -0.000 -0.000 -0.000 -0.000
 -0.000  0.260 -0.000  0.066  0.080
 -0.000 -0.000  0.260  0.080 -0.066
 -0.000  0.066  0.080  0.188  0.000
 -0.000  0.080 -0.066  0.000  0.188
atomic mag. moment =   3.97974
N of occupied +U levels =   35.884480
 --- exit write_ns ---
 Atomic wfc used for LDA+U Projector are NOT orthogonalized
     Starting wfcs are  204 randomized atomic wfcs

     Band Structure Calculation
     CG style diagonalization

     Computing kpt #:     1  of   152
     c_bands:  2 eigenvalues not converged
     total cpu time spent up to now is      603.5 secs

     Computing kpt #:     2  of   152
     total cpu time spent up to now is      847.6 secs

     Computing kpt #:     3  of   152
     total cpu time spent up to now is     1083.7 secs

     Computing kpt #:     4  of   152
     c_bands:  1 eigenvalues not converged
     total cpu time spent up to now is     1365.8 secs

     Computing kpt #:     5  of   152
     c_bands:  1 eigenvalues not converged
     total cpu time spent up to now is     1651.4 secs

     Computing kpt #:     6  of   152
     c_bands:  1 eigenvalues not converged
     total cpu time spent up to now is     1943.3 secs

     Computing kpt #:     7  of   152
     total cpu time spent up to now is     2226.8 secs

     Computing kpt #:     8  of   152
     c_bands:  1 eigenvalues not converged
     total cpu time spent up to now is     2513.6 secs

     Computing kpt #:     9  of   152
     c_bands:  1 eigenvalues not converged
     total cpu time spent up to now is     2797.9 secs

     Computing kpt #:    10  of   152
     c_bands:  1 eigenvalues not converged
     total cpu time spent up to now is     3083.0 secs

     Computing kpt #:    11  of   152
     total cpu time spent up to now is     3345.2 secs

     Computing kpt #:    12  of   152
     c_bands:  1 eigenvalues not converged
     total cpu time spent up to now is     3651.3 secs

     Computing kpt #:    13  of   152
     total cpu time spent up to now is     3944.3 secs

     Computing kpt #:    14  of   152
     total cpu time spent up to now is     4215.7 secs

     Computing kpt #:    15  of   152
     c_bands:  1 eigenvalues not converged
     total cpu time spent up to now is     4522.8 secs

     Computing kpt #:    16  of   152
     total cpu time spent up to now is     4834.1 secs

     Computing kpt #:    17  of   152
     c_bands:  2 eigenvalues not converged
     total cpu time spent up to now is     5149.8 secs

     Computing kpt #:    18  of   152
     c_bands:  1 eigenvalues not converged
     total cpu time spent up to now is     5463.2 secs

     Computing kpt #:    19  of   152
     total cpu time spent up to now is     5751.7 secs

     Computing kpt #:    20  of   152
     total cpu time spent up to now is     6043.5 secs

     Computing kpt #:    21  of   152
     c_bands:  3 eigenvalues not converged
     total cpu time spent up to now is     6356.7 secs

     Computing kpt #:    22  of   152
     c_bands:  1 eigenvalues not converged
     total cpu time spent up to now is     6667.8 secs

     Computing kpt #:    23  of   152
     c_bands:  1 eigenvalues not converged
     total cpu time spent up to now is     6980.3 secs

     Computing kpt #:    24  of   152
     c_bands:  1 eigenvalues not converged
     total cpu time spent up to now is     7272.5 secs

     Computing kpt #:    25  of   152
     total cpu time spent up to now is     7551.7 secs

     Computing kpt #:    26  of   152
     total cpu time spent up to now is     7832.1 secs

     Computing kpt #:    27  of   152
     c_bands:  1 eigenvalues not converged
     total cpu time spent up to now is     8112.9 secs

     Computing kpt #:    28  of   152
     total cpu time spent up to now is     8379.3 secs

     Computing kpt #:    29  of   152
     total cpu time spent up to now is     8646.1 secs

     Computing kpt #:    30  of   152
     c_bands:  1 eigenvalues not converged
     total cpu time spent up to now is     8930.8 secs

     Computing kpt #:    31  of   152
     total cpu time spent up to now is     9196.4 secs

     Computing kpt #:    32  of   152
     total cpu time spent up to now is     9475.7 secs

     Computing kpt #:    33  of   152
     c_bands:  4 eigenvalues not converged
     total cpu time spent up to now is     9758.1 secs

     Computing kpt #:    34  of   152
     total cpu time spent up to now is    10039.9 secs

     Computing kpt #:    35  of   152
     c_bands:  1 eigenvalues not converged
     total cpu time spent up to now is    10319.9 secs

     Computing kpt #:    36  of   152
     c_bands:  1 eigenvalues not converged
     total cpu time spent up to now is    10602.0 secs

     Computing kpt #:    37  of   152
     c_bands:  1 eigenvalues not converged
     total cpu time spent up to now is    10889.1 secs

     Computing kpt #:    38  of   152
     total cpu time spent up to now is    11167.8 secs

     Computing kpt #:    39  of   152
     c_bands:  1 eigenvalues not converged
     total cpu time spent up to now is    11447.3 secs

     Computing kpt #:    40  of   152
     total cpu time spent up to now is    11708.6 secs

     Computing kpt #:    41  of   152
     c_bands:  1 eigenvalues not converged
     total cpu time spent up to now is    11992.0 secs

     Computing kpt #:    42  of   152
     c_bands:  1 eigenvalues not converged
     total cpu time spent up to now is    12273.2 secs

     Computing kpt #:    43  of   152
     c_bands:  1 eigenvalues not converged
     total cpu time spent up to now is    12554.6 secs

     Computing kpt #:    44  of   152
     total cpu time spent up to now is    12800.0 secs

     Computing kpt #:    45  of   152
     total cpu time spent up to now is    13063.6 secs

     Computing kpt #:    46  of   152
     c_bands:  1 eigenvalues not converged
     total cpu time spent up to now is    13343.3 secs

     Computing kpt #:    47  of   152
     c_bands:  2 eigenvalues not converged
     total cpu time spent up to now is    13619.6 secs

     Computing kpt #:    48  of   152
     c_bands:  1 eigenvalues not converged
     total cpu time spent up to now is    13895.9 secs

     Computing kpt #:    49  of   152
     c_bands:  1 eigenvalues not converged
     total cpu time spent up to now is    14174.4 secs

     Computing kpt #:    50  of   152
     c_bands:  2 eigenvalues not converged
     total cpu time spent up to now is    14456.9 secs

     Computing kpt #:    51  of   152
     c_bands:  1 eigenvalues not converged
     total cpu time spent up to now is    14741.1 secs

     Computing kpt #:    52  of   152
     c_bands:  1 eigenvalues not converged
     total cpu time spent up to now is    15021.6 secs

     Computing kpt #:    53  of   152
     total cpu time spent up to now is    15303.9 secs

     Computing kpt #:    54  of   152
     total cpu time spent up to now is    15566.5 secs

     Computing kpt #:    55  of   152
     c_bands:  1 eigenvalues not converged
     total cpu time spent up to now is    15844.2 secs

     Computing kpt #:    56  of   152
     c_bands:  1 eigenvalues not converged
     total cpu time spent up to now is    16124.6 secs

     Computing kpt #:    57  of   152
     c_bands:  1 eigenvalues not converged
     total cpu time spent up to now is    16409.5 secs

     Computing kpt #:    58  of   152
     total cpu time spent up to now is    16655.6 secs

     Computing kpt #:    59  of   152
     total cpu time spent up to now is    16903.5 secs

     Computing kpt #:    60  of   152
     total cpu time spent up to now is    17188.1 secs

     Computing kpt #:    61  of   152
     c_bands:  4 eigenvalues not converged
     total cpu time spent up to now is    17473.4 secs

     Computing kpt #:    62  of   152
     total cpu time spent up to now is    17736.5 secs

     Computing kpt #:    63  of   152
     c_bands:  1 eigenvalues not converged
     total cpu time spent up to now is    18022.0 secs

     Computing kpt #:    64  of   152
     total cpu time spent up to now is    18292.9 secs

     Computing kpt #:    65  of   152
     total cpu time spent up to now is    18535.0 secs

     Computing kpt #:    66  of   152
     c_bands:  1 eigenvalues not converged
     total cpu time spent up to now is    18820.1 secs

     Computing kpt #:    67  of   152
     c_bands:  1 eigenvalues not converged
     total cpu time spent up to now is    19101.8 secs

     Computing kpt #:    68  of   152
     total cpu time spent up to now is    19369.0 secs

     Computing kpt #:    69  of   152
     total cpu time spent up to now is    19652.6 secs

     Computing kpt #:    70  of   152
     c_bands:  1 eigenvalues not converged
     total cpu time spent up to now is    19940.2 secs

     Computing kpt #:    71  of   152
     total cpu time spent up to now is    20202.8 secs

     Computing kpt #:    72  of   152
     total cpu time spent up to now is    20466.2 secs

     Computing kpt #:    73  of   152
     c_bands:  1 eigenvalues not converged
     total cpu time spent up to now is    20746.6 secs

     Computing kpt #:    74  of   152
     c_bands:  1 eigenvalues not converged
     total cpu time spent up to now is    21027.0 secs

     Computing kpt #:    75  of   152
     total cpu time spent up to now is    21293.7 secs

     Computing kpt #:    76  of   152
     total cpu time spent up to now is    21540.7 secs

     Computing kpt #:    77  of   152
     c_bands:  2 eigenvalues not converged
     total cpu time spent up to now is    21822.3 secs

     Computing kpt #:    78  of   152
     total cpu time spent up to now is    22063.7 secs

     Computing kpt #:    79  of   152
     total cpu time spent up to now is    22303.9 secs

     Computing kpt #:    80  of   152
     c_bands:  1 eigenvalues not converged
     total cpu time spent up to now is    22581.2 secs

     Computing kpt #:    81  of   152
     c_bands:  1 eigenvalues not converged
     total cpu time spent up to now is    22863.9 secs

     Computing kpt #:    82  of   152
     c_bands:  1 eigenvalues not converged
     total cpu time spent up to now is    23154.0 secs

     Computing kpt #:    83  of   152
     total cpu time spent up to now is    23421.0 secs

     Computing kpt #:    84  of   152
     c_bands:  1 eigenvalues not converged
     total cpu time spent up to now is    23700.6 secs

     Computing kpt #:    85  of   152
     c_bands:  1 eigenvalues not converged
     total cpu time spent up to now is    23981.7 secs

     Computing kpt #:    86  of   152
     c_bands:  1 eigenvalues not converged
     total cpu time spent up to now is    24262.9 secs

     Computing kpt #:    87  of   152
     total cpu time spent up to now is    24508.2 secs

     Computing kpt #:    88  of   152
     c_bands:  1 eigenvalues not converged
     total cpu time spent up to now is    24792.6 secs

     Computing kpt #:    89  of   152
     total cpu time spent up to now is    25060.8 secs

     Computing kpt #:    90  of   152
     total cpu time spent up to now is    25312.3 secs

     Computing kpt #:    91  of   152
     c_bands:  1 eigenvalues not converged
     total cpu time spent up to now is    25592.9 secs

     Computing kpt #:    92  of   152
     total cpu time spent up to now is    25879.3 secs

     Computing kpt #:    93  of   152
     c_bands:  1 eigenvalues not converged
     total cpu time spent up to now is    26166.0 secs

     Computing kpt #:    94  of   152
     c_bands:  1 eigenvalues not converged
     total cpu time spent up to now is    26450.8 secs

     Computing kpt #:    95  of   152
     total cpu time spent up to now is    26709.6 secs

     Computing kpt #:    96  of   152
     total cpu time spent up to now is    26988.0 secs

     Computing kpt #:    97  of   152
     c_bands:  4 eigenvalues not converged
     total cpu time spent up to now is    27274.2 secs

     Computing kpt #:    98  of   152
     total cpu time spent up to now is    27537.3 secs

     Computing kpt #:    99  of   152
     c_bands:  1 eigenvalues not converged
     total cpu time spent up to now is    27819.9 secs

     Computing kpt #:   100  of   152
     c_bands:  1 eigenvalues not converged
     total cpu time spent up to now is    28103.5 secs

     Computing kpt #:   101  of   152
     total cpu time spent up to now is    28351.0 secs

     Computing kpt #:   102  of   152
     total cpu time spent up to now is    28618.9 secs

     Computing kpt #:   103  of   152
     c_bands:  1 eigenvalues not converged
     total cpu time spent up to now is    28897.4 secs

     Computing kpt #:   104  of   152
     total cpu time spent up to now is    29159.4 secs

     Computing kpt #:   105  of   152
     total cpu time spent up to now is    29424.0 secs

     Computing kpt #:   106  of   152
     c_bands:  1 eigenvalues not converged
     total cpu time spent up to now is    29707.5 secs

     Computing kpt #:   107  of   152
     total cpu time spent up to now is    29965.7 secs

     Computing kpt #:   108  of   152
     total cpu time spent up to now is    30246.8 secs

     Computing kpt #:   109  of   152
     c_bands:  4 eigenvalues not converged
     total cpu time spent up to now is    30529.6 secs

     Computing kpt #:   110  of   152
     total cpu time spent up to now is    30811.2 secs

     Computing kpt #:   111  of   152
     c_bands:  1 eigenvalues not converged
     total cpu time spent up to now is    31087.0 secs

     Computing kpt #:   112  of   152
     c_bands:  2 eigenvalues not converged
     total cpu time spent up to now is    31373.3 secs

     Computing kpt #:   113  of   152
     c_bands:  1 eigenvalues not converged
     total cpu time spent up to now is    31660.1 secs

     Computing kpt #:   114  of   152
     c_bands:  1 eigenvalues not converged
     total cpu time spent up to now is    31939.7 secs

     Computing kpt #:   115  of   152
     c_bands:  1 eigenvalues not converged
     total cpu time spent up to now is    32224.3 secs

     Computing kpt #:   116  of   152
     total cpu time spent up to now is    32471.8 secs

     Computing kpt #:   117  of   152
     c_bands:  1 eigenvalues not converged
     total cpu time spent up to now is    32750.1 secs

     Computing kpt #:   118  of   152
     c_bands:  1 eigenvalues not converged
     total cpu time spent up to now is    33032.5 secs

     Computing kpt #:   119  of   152
     c_bands:  1 eigenvalues not converged
     total cpu time spent up to now is    33313.9 secs

     Computing kpt #:   120  of   152
     total cpu time spent up to now is    33595.3 secs

     Computing kpt #:   121  of   152
     total cpu time spent up to now is    33874.7 secs

     Computing kpt #:   122  of   152
     c_bands:  1 eigenvalues not converged
     total cpu time spent up to now is    34151.6 secs

     Computing kpt #:   123  of   152
     c_bands:  2 eigenvalues not converged
     total cpu time spent up to now is    34424.0 secs

     Computing kpt #:   124  of   152
     c_bands:  2 eigenvalues not converged
     total cpu time spent up to now is    34700.9 secs

     Computing kpt #:   125  of   152
     c_bands:  2 eigenvalues not converged
     total cpu time spent up to now is    34978.4 secs

     Computing kpt #:   126  of   152
     c_bands:  1 eigenvalues not converged
     total cpu time spent up to now is    35253.8 secs

     Computing kpt #:   127  of   152
     c_bands:  1 eigenvalues not converged
     total cpu time spent up to now is    35539.8 secs

     Computing kpt #:   128  of   152
     c_bands:  1 eigenvalues not converged
     total cpu time spent up to now is    35816.9 secs

     Computing kpt #:   129  of   152
     total cpu time spent up to now is    36081.6 secs

     Computing kpt #:   130  of   152
     total cpu time spent up to now is    36350.2 secs

     Computing kpt #:   131  of   152
     c_bands:  1 eigenvalues not converged
     total cpu time spent up to now is    36629.1 secs

     Computing kpt #:   132  of   152
     total cpu time spent up to now is    36911.4 secs

     Computing kpt #:   133  of   152
     c_bands:  1 eigenvalues not converged
     total cpu time spent up to now is    37192.5 secs

     Computing kpt #:   134  of   152
     total cpu time spent up to now is    37439.4 secs

     Computing kpt #:   135  of   152
     total cpu time spent up to now is    37701.7 secs

     Computing kpt #:   136  of   152
     total cpu time spent up to now is    37965.0 secs

     Computing kpt #:   137  of   152
     c_bands:  4 eigenvalues not converged
     total cpu time spent up to now is    38245.4 secs

     Computing kpt #:   138  of   152
     total cpu time spent up to now is    38525.5 secs

     Computing kpt #:   139  of   152
     c_bands:  1 eigenvalues not converged
     total cpu time spent up to now is    38808.9 secs

     Computing kpt #:   140  of   152
     total cpu time spent up to now is    39071.3 secs

     Computing kpt #:   141  of   152
     total cpu time spent up to now is    39330.2 secs

     Computing kpt #:   142  of   152
     c_bands:  1 eigenvalues not converged
     total cpu time spent up to now is    39612.5 secs

     Computing kpt #:   143  of   152
     c_bands:  1 eigenvalues not converged
     total cpu time spent up to now is    39893.3 secs

     Computing kpt #:   144  of   152
     total cpu time spent up to now is    40157.7 secs

     Computing kpt #:   145  of   152
     total cpu time spent up to now is    40436.9 secs

     Computing kpt #:   146  of   152
     c_bands:  1 eigenvalues not converged
     total cpu time spent up to now is    40722.6 secs

     Computing kpt #:   147  of   152
     total cpu time spent up to now is    41001.7 secs

     Computing kpt #:   148  of   152
     total cpu time spent up to now is    41280.5 secs

     Computing kpt #:   149  of   152
     total cpu time spent up to now is    41563.0 secs

     Computing kpt #:   150  of   152
     c_bands:  1 eigenvalues not converged
     total cpu time spent up to now is    41849.2 secs

     Computing kpt #:   151  of   152
     total cpu time spent up to now is    42112.3 secs

     Computing kpt #:   152  of   152
     total cpu time spent up to now is    42361.0 secs

     ethr =  3.40E-11,  avg # of iterations = 48.5

     total cpu time spent up to now is    42361.3 secs

     End of band structure calculation

 ------ SPIN UP ------------


          k = 0.0000 0.0000 0.0000 ( 10443 PWs)   bands (ev):

   -79.4746 -79.2927 -79.2403 -74.1959 -74.0774 -74.0603 -45.4755 -45.4112
   -45.4112 -45.2829 -45.2828 -45.2405 -45.2404 -45.1679 -45.1679 -40.3333
   -40.2807 -40.2807 -40.2142 -40.2113 -40.1672 -40.1671 -40.1486 -40.1486
   -10.5770 -10.5770 -10.5538 -10.5538 -10.5379 -10.5297 -10.5109 -10.5109
   -10.4949 -10.4949 -10.4882 -10.4882 -10.4656 -10.4656 -10.4412 -10.4311
   -10.4181 -10.4181 -10.4078 -10.4078 -10.3981 -10.3981 -10.3929 -10.3878
   -10.3878 -10.3857 -10.3595 -10.3595 -10.3500 -10.3500  -7.2725  -6.8793
    -6.7669  -5.9275  -5.8561  -5.5581  -5.5580  -5.4491  -5.4490  -5.3489
    -5.3489  -5.2917  -5.2246  -5.2245  -4.9926  -4.9926  -4.8366  -4.8365
     1.6475   1.7729   1.8279   2.5204   2.6349   3.4251   4.1706   4.1706
     4.3125   4.3125   4.6576   4.6576   4.8724   4.8725   4.8945   5.0243
     5.0793   5.1396   5.1396   5.4766   5.5251   5.5251   6.1937   6.3369
     6.3370   6.4672   6.7611   6.7611   6.9047   7.0438   7.0438   7.3439
     7.4026   7.4027   7.5140   7.6009   7.8229   7.8229   8.1127   8.1128
     8.3461   8.4381   8.4381   8.4440   8.9373   8.9374   9.1747   9.1748
     9.3820   9.4289   9.4289   9.4601   9.6883   9.6883  10.0638  10.0638
    10.1647  10.1648  10.1691  10.2159  10.2160  10.4502  10.4502  10.6657
    10.6657  10.8148  10.9511  11.1599  11.1826  11.1827  11.2595  11.2867
    11.3452  11.9443  11.9444  13.7359  13.7359  13.8793  13.9360  13.9901
    13.9901  14.0519  14.1737  14.1737  14.3009  14.3009  14.9811  14.9811
    15.6069  15.6380  15.6380  15.8359  15.9100  16.0424  17.2639  17.2639
    17.2915  17.2915  17.3728  17.3728  17.6557  17.7312  17.8066  17.8066

     occupation numbers 
     1.0000   1.0000   1.0000   1.0000   1.0000   1.0000   1.0000   1.0000
     1.0000   1.0000   1.0000   1.0000   1.0000   1.0000   1.0000   1.0000
     1.0000   1.0000   1.0000   1.0000   1.0000   1.0000   1.0000   1.0000
     1.0000   1.0000   1.0000   1.0000   1.0000   1.0000   1.0000   1.0000
     1.0000   1.0000   1.0000   1.0000   1.0000   1.0000   1.0000   1.0000
     1.0000   1.0000   1.0000   1.0000   1.0000   1.0000   1.0000   1.0000
     1.0000   1.0000   1.0000   1.0000   1.0000   1.0000   1.0000   1.0000
     1.0000   1.0000   1.0000   1.0000   1.0000   1.0000   1.0000   1.0000
     1.0000   1.0000   1.0000   1.0000   1.0000   1.0000   1.0000   1.0000
     1.0000   1.0000   1.0000   1.0000   1.0000   1.0000   1.0000   1.0000
     1.0000   1.0000   1.0000   1.0000   1.0000   1.0000   1.0000   1.0000
     1.0000   1.0000   1.0000   1.0000   1.0000   1.0000   1.0000   1.0000
     1.0000   1.0000   1.0000   1.0000   1.0000   1.0000   1.0000   1.0000
     1.0000   1.0000   1.0000   1.0000   1.0000   1.0000   1.0000   1.0000
     1.0000   1.0000   1.0000   1.0000   1.0000   1.0000   1.0000   1.0000
     1.0000   1.0000   1.0000   1.0000   1.0000   1.0000   1.0000   1.0000
     1.0000   1.0000   1.0000   1.0000   1.0000   1.0000   1.0000   1.0000
     1.0000   1.0000   1.0000   1.0000   1.0000   1.0000   1.0000   1.0000
     1.0000   1.0000   1.0000   0.0000   0.0000   0.0000   0.0000   0.0000
     0.0000   0.0000   0.0000   0.0000   0.0000   0.0000   0.0000   0.0000
     0.0000   0.0000   0.0000   0.0000   0.0000   0.0000   0.0000   0.0000
     0.0000   0.0000   0.0000   0.0000   0.0000   0.0000   0.0000   0.0000

          k = 0.0000 0.0000 0.1013 ( 10474 PWs)   bands (ev):

   -79.4746 -79.2927 -79.2403 -74.1959 -74.0774 -74.0603 -45.4755 -45.4112
   -45.4112 -45.2829 -45.2828 -45.2405 -45.2404 -45.1679 -45.1679 -40.3333
   -40.2807 -40.2807 -40.2142 -40.2113 -40.1672 -40.1671 -40.1486 -40.1486
   -10.5751 -10.5750 -10.5581 -10.5579 -10.5380 -10.5299 -10.5074 -10.5069
   -10.4960 -10.4948 -10.4867 -10.4859 -10.4693 -10.4692 -10.4403 -10.4325
   -10.4171 -10.4168 -10.4104 -10.4099 -10.3960 -10.3960 -10.3924 -10.3886
   -10.3884 -10.3860 -10.3583 -10.3582 -10.3511 -10.3510  -7.2529  -6.9950
    -6.6082  -6.1330  -5.6832  -5.5582  -5.5580  -5.4491  -5.4484  -5.3493
    -5.3486  -5.3217  -5.2251  -5.2249  -4.9922  -4.9919  -4.8369  -4.8368
     1.6421   1.7386   1.9168   2.3057   2.8711   3.3492   4.1705   4.1709
     4.3137   4.3142   4.6571   4.6573   4.8656   4.8725   4.8941   5.0162
     5.0768   5.1378   5.1424   5.5144   5.5200   5.5291   6.0518   6.3361
     6.3561   6.6561   6.7340   6.7398   6.9866   7.0878   7.0929   7.2219
     7.3513   7.4219   7.4634   7.6188   7.7796   7.8613   8.0718   8.0984
     8.1403   8.3996   8.4721   8.7002   8.7975   8.9279   9.2276   9.2985
     9.3399   9.4538   9.4902   9.6305   9.7116   9.7127   9.9406   9.9563
    10.0061  10.0476  10.0817  10.3129  10.3198  10.4815  10.4930  10.6567
    10.6749  10.8310  10.9837  11.0940  11.1690  11.1813  11.1852  11.3396
    11.4411  11.9430  11.9527  13.7349  13.7387  13.8611  13.9218  13.9889
    13.9906  14.0615  14.1721  14.1722  14.2992  14.3013  14.9831  14.9854
    15.3342  15.5275  15.6362  15.6371  16.3416  16.4988  17.2577  17.2595
    17.3097  17.3230  17.3839  17.3922  17.4545  17.5427  17.6500  17.6574

     occupation numbers 
     1.0000   1.0000   1.0000   1.0000   1.0000   1.0000   1.0000   1.0000
     1.0000   1.0000   1.0000   1.0000   1.0000   1.0000   1.0000   1.0000
     1.0000   1.0000   1.0000   1.0000   1.0000   1.0000   1.0000   1.0000
     1.0000   1.0000   1.0000   1.0000   1.0000   1.0000   1.0000   1.0000
     1.0000   1.0000   1.0000   1.0000   1.0000   1.0000   1.0000   1.0000
     1.0000   1.0000   1.0000   1.0000   1.0000   1.0000   1.0000   1.0000
     1.0000   1.0000   1.0000   1.0000   1.0000   1.0000   1.0000   1.0000
     1.0000   1.0000   1.0000   1.0000   1.0000   1.0000   1.0000   1.0000
     1.0000   1.0000   1.0000   1.0000   1.0000   1.0000   1.0000   1.0000
     1.0000   1.0000   1.0000   1.0000   1.0000   1.0000   1.0000   1.0000
     1.0000   1.0000   1.0000   1.0000   1.0000   1.0000   1.0000   1.0000
     1.0000   1.0000   1.0000   1.0000   1.0000   1.0000   1.0000   1.0000
     1.0000   1.0000   1.0000   1.0000   1.0000   1.0000   1.0000   1.0000
     1.0000   1.0000   1.0000   1.0000   1.0000   1.0000   1.0000   1.0000
     1.0000   1.0000   1.0000   1.0000   1.0000   1.0000   1.0000   1.0000
     1.0000   1.0000   1.0000   1.0000   1.0000   1.0000   1.0000   1.0000
     1.0000   1.0000   1.0000   1.0000   1.0000   1.0000   1.0000   1.0000
     1.0000   1.0000   1.0000   1.0000   1.0000   1.0000   1.0000   1.0000
     1.0000   1.0000   1.0000   0.0000   0.0000   0.0000   0.0000   0.0000
     0.0000   0.0000   0.0000   0.0000   0.0000   0.0000   0.0000   0.0000
     0.0000   0.0000   0.0000   0.0000   0.0000   0.0000   0.0000   0.0000
     0.0000   0.0000   0.0000   0.0000   0.0000   0.0000   0.0000   0.0000

          k = 0.0000 0.0000-0.2026 ( 10480 PWs)   bands (ev):

   -79.4746 -79.2927 -79.2403 -74.1959 -74.0774 -74.0603 -45.4755 -45.4112
   -45.4112 -45.2829 -45.2828 -45.2405 -45.2404 -45.1679 -45.1679 -40.3333
   -40.2807 -40.2807 -40.2142 -40.2113 -40.1672 -40.1672 -40.1486 -40.1486
   -10.5716 -10.5716 -10.5633 -10.5632 -10.5378 -10.5300 -10.5036 -10.5036
   -10.4962 -10.4962 -10.4819 -10.4819 -10.4751 -10.4751 -10.4388 -10.4341
   -10.4142 -10.4142 -10.4137 -10.4137 -10.3940 -10.3940 -10.3918 -10.3895
   -10.3895 -10.3865 -10.3565 -10.3565 -10.3527 -10.3526  -7.2237  -7.0705
    -6.3948  -6.3600  -5.5787  -5.5582  -5.5582  -5.4485  -5.4484  -5.3665
    -5.3490  -5.3490  -5.2256  -5.2254  -4.9915  -4.9914  -4.8371  -4.8371
     1.6368   1.7244   2.0696   2.0999   3.1130   3.1749   4.1707   4.1708
     4.3155   4.3155   4.6567   4.6567   4.8657   4.8658   4.8937   5.0091
     5.0737   5.1407   5.1407   5.5239   5.5240   5.5621   5.9471   6.3556
     6.3557   6.7154   6.7154   6.9060   6.9876   7.1227   7.1419   7.1419
     7.3566   7.3567   7.3569   7.6524   7.8245   7.8246   8.0268   8.0552
     8.0553   8.4272   8.4273   8.8226   8.8226   8.9563   9.0285   9.4329
     9.4329   9.5846   9.5846   9.7158   9.7159   9.8304   9.8472   9.8473
     9.8941   9.8941   9.9090  10.3555  10.3555  10.5243  10.5243  10.6624
    10.6624  10.8527  11.0064  11.0781  11.1055  11.1717  11.1717  11.3840
    11.4966  11.9513  11.9514  13.7377  13.7377  13.8438  13.9080  13.9895
    13.9895  14.0671  14.1705  14.1705  14.2996  14.2996  14.9874  14.9874
    15.2244  15.3545  15.6352  15.6352  16.9089  16.9235  17.0464  17.1672
    17.2684  17.2684  17.3059  17.3059  17.4797  17.4797  17.5115  17.5115

     occupation numbers 
     1.0000   1.0000   1.0000   1.0000   1.0000   1.0000   1.0000   1.0000
     1.0000   1.0000   1.0000   1.0000   1.0000   1.0000   1.0000   1.0000
     1.0000   1.0000   1.0000   1.0000   1.0000   1.0000   1.0000   1.0000
     1.0000   1.0000   1.0000   1.0000   1.0000   1.0000   1.0000   1.0000
     1.0000   1.0000   1.0000   1.0000   1.0000   1.0000   1.0000   1.0000
     1.0000   1.0000   1.0000   1.0000   1.0000   1.0000   1.0000   1.0000
     1.0000   1.0000   1.0000   1.0000   1.0000   1.0000   1.0000   1.0000
     1.0000   1.0000   1.0000   1.0000   1.0000   1.0000   1.0000   1.0000
     1.0000   1.0000   1.0000   1.0000   1.0000   1.0000   1.0000   1.0000
     1.0000   1.0000   1.0000   1.0000   1.0000   1.0000   1.0000   1.0000
     1.0000   1.0000   1.0000   1.0000   1.0000   1.0000   1.0000   1.0000
     1.0000   1.0000   1.0000   1.0000   1.0000   1.0000   1.0000   1.0000
     1.0000   1.0000   1.0000   1.0000   1.0000   1.0000   1.0000   1.0000
     1.0000   1.0000   1.0000   1.0000   1.0000   1.0000   1.0000   1.0000
     1.0000   1.0000   1.0000   1.0000   1.0000   1.0000   1.0000   1.0000
     1.0000   1.0000   1.0000   1.0000   1.0000   1.0000   1.0000   1.0000
     1.0000   1.0000   1.0000   1.0000   1.0000   1.0000   1.0000   1.0000
     1.0000   1.0000   1.0000   1.0000   1.0000   1.0000   1.0000   1.0000
     1.0000   1.0000   1.0000   0.0000   0.0000   0.0000   0.0000   0.0000
     0.0000   0.0000   0.0000   0.0000   0.0000   0.0000   0.0000   0.0000
     0.0000   0.0000   0.0000   0.0000   0.0000   0.0000   0.0000   0.0000
     0.0000   0.0000   0.0000   0.0000   0.0000   0.0000   0.0000   0.0000

          k = 0.0000 0.1925 0.0000 ( 10468 PWs)   bands (ev):

   -79.4746 -79.2927 -79.2403 -74.1959 -74.0774 -74.0603 -45.4755 -45.4112
   -45.4112 -45.2829 -45.2828 -45.2405 -45.2404 -45.1679 -45.1679 -40.3333
   -40.2807 -40.2807 -40.2142 -40.2113 -40.1672 -40.1672 -40.1486 -40.1486
   -10.5735 -10.5673 -10.5587 -10.5531 -10.5371 -10.5291 -10.5040 -10.5029
   -10.4949 -10.4943 -10.4850 -10.4841 -10.4676 -10.4673 -10.4394 -10.4316
   -10.4178 -10.4174 -10.4115 -10.4109 -10.3997 -10.3975 -10.3927 -10.3909
   -10.3891 -10.3849 -10.3618 -10.3589 -10.3559 -10.3523  -7.1783  -6.8019
    -6.6875  -5.9245  -5.8547  -5.6149  -5.5845  -5.5079  -5.4727  -5.3942
    -5.3760  -5.3302  -5.2574  -5.2257  -5.0398  -5.0213  -4.8539  -4.8348
     1.6211   1.7438   1.8128   2.4186   2.5346   3.1353   4.1808   4.2098
     4.3760   4.3912   4.6779   4.7249   4.8204   4.8565   4.8787   5.0256
     5.0793   5.1621   5.2215   5.5022   5.5227   5.6211   6.2687   6.4661
     6.5094   6.5845   6.7788   6.9483   7.0654   7.1447   7.2512   7.2856
     7.3719   7.4891   7.6362   7.7629   7.8405   7.9954   8.1128   8.2915
     8.3609   8.4860   8.5517   8.6251   8.8118   8.8935   9.1042   9.2139
     9.3138   9.4363   9.4728   9.5544   9.6483   9.6907   9.7301   9.9561
     9.9987  10.0098  10.0406  10.1309  10.1763  10.2223  10.3956  10.5147
    10.5842  10.7393  10.9655  11.1191  11.1667  11.2217  11.2874  11.4096
    11.5707  11.8768  11.9435  13.7018  13.7586  13.8545  13.9567  14.0169
    14.0347  14.1025  14.1490  14.1630  14.3361  14.3754  14.8544  14.9663
    15.4484  15.5484  15.6052  15.7728  15.9303  16.0677  16.7336  16.9494
    17.0169  17.0767  17.2786  17.3643  17.4320  17.4765  17.6226  17.8127

     occupation numbers 
     1.0000   1.0000   1.0000   1.0000   1.0000   1.0000   1.0000   1.0000
     1.0000   1.0000   1.0000   1.0000   1.0000   1.0000   1.0000   1.0000
     1.0000   1.0000   1.0000   1.0000   1.0000   1.0000   1.0000   1.0000
     1.0000   1.0000   1.0000   1.0000   1.0000   1.0000   1.0000   1.0000
     1.0000   1.0000   1.0000   1.0000   1.0000   1.0000   1.0000   1.0000
     1.0000   1.0000   1.0000   1.0000   1.0000   1.0000   1.0000   1.0000
     1.0000   1.0000   1.0000   1.0000   1.0000   1.0000   1.0000   1.0000
     1.0000   1.0000   1.0000   1.0000   1.0000   1.0000   1.0000   1.0000
     1.0000   1.0000   1.0000   1.0000   1.0000   1.0000   1.0000   1.0000
     1.0000   1.0000   1.0000   1.0000   1.0000   1.0000   1.0000   1.0000
     1.0000   1.0000   1.0000   1.0000   1.0000   1.0000   1.0000   1.0000
     1.0000   1.0000   1.0000   1.0000   1.0000   1.0000   1.0000   1.0000
     1.0000   1.0000   1.0000   1.0000   1.0000   1.0000   1.0000   1.0000
     1.0000   1.0000   1.0000   1.0000   1.0000   1.0000   1.0000   1.0000
     1.0000   1.0000   1.0000   1.0000   1.0000   1.0000   1.0000   1.0000
     1.0000   1.0000   1.0000   1.0000   1.0000   1.0000   1.0000   1.0000
     1.0000   1.0000   1.0000   1.0000   1.0000   1.0000   1.0000   1.0000
     1.0000   1.0000   1.0000   1.0000   1.0000   1.0000   1.0000   1.0000
     1.0000   1.0000   1.0000   0.0000   0.0000   0.0000   0.0000   0.0000
     0.0000   0.0000   0.0000   0.0000   0.0000   0.0000   0.0000   0.0000
     0.0000   0.0000   0.0000   0.0000   0.0000   0.0000   0.0000   0.0000
     0.0000   0.0000   0.0000   0.0000   0.0000   0.0000   0.0000   0.0000

          k = 0.0000 0.1925 0.1013 ( 10455 PWs)   bands (ev):

   -79.4746 -79.2927 -79.2403 -74.1959 -74.0774 -74.0603 -45.4755 -45.4112
   -45.4112 -45.2829 -45.2828 -45.2405 -45.2404 -45.1679 -45.1679 -40.3333
   -40.2807 -40.2807 -40.2142 -40.2113 -40.1672 -40.1672 -40.1486 -40.1486
   -10.5756 -10.5648 -10.5566 -10.5541 -10.5374 -10.5295 -10.5084 -10.5019
   -10.4952 -10.4939 -10.4837 -10.4795 -10.4728 -10.4647 -10.4390 -10.4324
   -10.4180 -10.4158 -10.4143 -10.4086 -10.4004 -10.3968 -10.3931 -10.3912
   -10.3889 -10.3850 -10.3614 -10.3600 -10.3566 -10.3508  -7.1602  -6.9078
    -6.5439  -6.0911  -5.7624  -5.5858  -5.5687  -5.5127  -5.4728  -5.3950
    -5.3721  -5.3458  -5.2558  -5.2337  -5.0418  -5.0224  -4.8537  -4.8347
     1.6155   1.7278   1.8666   2.2660   2.6976   3.0924   4.1811   4.2078
     4.3774   4.3907   4.6842   4.7241   4.8222   4.8494   4.8801   5.0229
     5.0763   5.1634   5.2188   5.4995   5.5252   5.6485   6.1387   6.5048
     6.5431   6.6664   6.8346   6.9724   7.0119   7.1138   7.2030   7.2618
     7.4019   7.5043   7.6286   7.7667   7.8182   7.9830   8.0969   8.2985
     8.3723   8.4369   8.5404   8.7303   8.8091   8.9139   9.1051   9.1451
     9.3394   9.3999   9.5345   9.5897   9.6424   9.6758   9.7867   9.8236
     9.9328   9.9949  10.0829  10.1175  10.2202  10.3211  10.4177  10.4880
    10.5237  10.7369  10.9633  11.0941  11.1444  11.2293  11.3510  11.4240
    11.5638  11.8862  11.9408  13.6968  13.7560  13.8423  13.9511  14.0170
    14.0367  14.1048  14.1490  14.1643  14.3382  14.3766  14.8434  14.9577
    15.3230  15.5009  15.6184  15.6509  16.1074  16.3593  16.6191  16.9037
    17.0653  17.1336  17.2797  17.4374  17.4722  17.5178  17.5723  17.6904

     occupation numbers 
     1.0000   1.0000   1.0000   1.0000   1.0000   1.0000   1.0000   1.0000
     1.0000   1.0000   1.0000   1.0000   1.0000   1.0000   1.0000   1.0000
     1.0000   1.0000   1.0000   1.0000   1.0000   1.0000   1.0000   1.0000
     1.0000   1.0000   1.0000   1.0000   1.0000   1.0000   1.0000   1.0000
     1.0000   1.0000   1.0000   1.0000   1.0000   1.0000   1.0000   1.0000
     1.0000   1.0000   1.0000   1.0000   1.0000   1.0000   1.0000   1.0000
     1.0000   1.0000   1.0000   1.0000   1.0000   1.0000   1.0000   1.0000
     1.0000   1.0000   1.0000   1.0000   1.0000   1.0000   1.0000   1.0000
     1.0000   1.0000   1.0000   1.0000   1.0000   1.0000   1.0000   1.0000
     1.0000   1.0000   1.0000   1.0000   1.0000   1.0000   1.0000   1.0000
     1.0000   1.0000   1.0000   1.0000   1.0000   1.0000   1.0000   1.0000
     1.0000   1.0000   1.0000   1.0000   1.0000   1.0000   1.0000   1.0000
     1.0000   1.0000   1.0000   1.0000   1.0000   1.0000   1.0000   1.0000
     1.0000   1.0000   1.0000   1.0000   1.0000   1.0000   1.0000   1.0000
     1.0000   1.0000   1.0000   1.0000   1.0000   1.0000   1.0000   1.0000
     1.0000   1.0000   1.0000   1.0000   1.0000   1.0000   1.0000   1.0000
     1.0000   1.0000   1.0000   1.0000   1.0000   1.0000   1.0000   1.0000
     1.0000   1.0000   1.0000   1.0000   1.0000   1.0000   1.0000   1.0000
     1.0000   1.0000   1.0000   0.0000   0.0000   0.0000   0.0000   0.0000
     0.0000   0.0000   0.0000   0.0000   0.0000   0.0000   0.0000   0.0000
     0.0000   0.0000   0.0000   0.0000   0.0000   0.0000   0.0000   0.0000
     0.0000   0.0000   0.0000   0.0000   0.0000   0.0000   0.0000   0.0000

          k = 0.0000 0.1925-0.2026 ( 10456 PWs)   bands (ev):

   -79.4746 -79.2927 -79.2403 -74.1959 -74.0774 -74.0603 -45.4755 -45.4112
   -45.4112 -45.2829 -45.2828 -45.2405 -45.2404 -45.1679 -45.1679 -40.3333
   -40.2807 -40.2807 -40.2142 -40.2113 -40.1672 -40.1672 -40.1486 -40.1486
   -10.5741 -10.5674 -10.5573 -10.5526 -10.5371 -10.5292 -10.5075 -10.5048
   -10.4950 -10.4943 -10.4817 -10.4803 -10.4689 -10.4682 -10.4381 -10.4332
   -10.4177 -10.4159 -10.4127 -10.4108 -10.4001 -10.3969 -10.3930 -10.3906
   -10.3892 -10.3852 -10.3625 -10.3597 -10.3554 -10.3512  -7.1327  -6.9801
    -6.3457  -6.3029  -5.7054  -5.5872  -5.5544  -5.4891  -5.4634  -5.4324
    -5.3791  -5.3341  -5.2548  -5.2440  -5.0439  -5.0233  -4.8533  -4.8345
     1.6104   1.7043   2.0163   2.0708   2.8879   2.9759   4.1804   4.2100
     4.3795   4.3909   4.6827   4.7265   4.8149   4.8467   4.8718   5.0374
     5.0825   5.1617   5.2066   5.4986   5.5236   5.6771   6.0660   6.5084
     6.5696   6.7437   6.8869   6.9420   7.0019   7.1021   7.1485   7.2451
     7.4490   7.4969   7.6018   7.7775   7.8354   7.9453   8.0854   8.2854
     8.3555   8.4163   8.5651   8.7333   8.7989   9.0292   9.0662   9.2256
     9.3245   9.3801   9.4792   9.5640   9.6452   9.7499   9.7610   9.8410
     9.8711   9.9432  10.1052  10.1247  10.2275  10.3419  10.4186  10.5067
    10.5498  10.6874  10.9755  11.0309  11.1482  11.2295  11.3774  11.4429
    11.5998  11.8787  11.9411  13.6909  13.7526  13.8344  13.9456  14.0178
    14.0374  14.1061  14.1487  14.1678  14.3396  14.3756  14.8331  14.9557
    15.2830  15.4694  15.5421  15.6208  16.3431  16.4328  16.6868  16.8997
    16.9324  17.1403  17.3225  17.3811  17.4761  17.5276  17.5955  17.6989

     occupation numbers 
     1.0000   1.0000   1.0000   1.0000   1.0000   1.0000   1.0000   1.0000
     1.0000   1.0000   1.0000   1.0000   1.0000   1.0000   1.0000   1.0000
     1.0000   1.0000   1.0000   1.0000   1.0000   1.0000   1.0000   1.0000
     1.0000   1.0000   1.0000   1.0000   1.0000   1.0000   1.0000   1.0000
     1.0000   1.0000   1.0000   1.0000   1.0000   1.0000   1.0000   1.0000
     1.0000   1.0000   1.0000   1.0000   1.0000   1.0000   1.0000   1.0000
     1.0000   1.0000   1.0000   1.0000   1.0000   1.0000   1.0000   1.0000
     1.0000   1.0000   1.0000   1.0000   1.0000   1.0000   1.0000   1.0000
     1.0000   1.0000   1.0000   1.0000   1.0000   1.0000   1.0000   1.0000
     1.0000   1.0000   1.0000   1.0000   1.0000   1.0000   1.0000   1.0000
     1.0000   1.0000   1.0000   1.0000   1.0000   1.0000   1.0000   1.0000
     1.0000   1.0000   1.0000   1.0000   1.0000   1.0000   1.0000   1.0000
     1.0000   1.0000   1.0000   1.0000   1.0000   1.0000   1.0000   1.0000
     1.0000   1.0000   1.0000   1.0000   1.0000   1.0000   1.0000   1.0000
     1.0000   1.0000   1.0000   1.0000   1.0000   1.0000   1.0000   1.0000
     1.0000   1.0000   1.0000   1.0000   1.0000   1.0000   1.0000   1.0000
     1.0000   1.0000   1.0000   1.0000   1.0000   1.0000   1.0000   1.0000
     1.0000   1.0000   1.0000   1.0000   1.0000   1.0000   1.0000   1.0000
     1.0000   1.0000   1.0000   0.0000   0.0000   0.0000   0.0000   0.0000
     0.0000   0.0000   0.0000   0.0000   0.0000   0.0000   0.0000   0.0000
     0.0000   0.0000   0.0000   0.0000   0.0000   0.0000   0.0000   0.0000
     0.0000   0.0000   0.0000   0.0000   0.0000   0.0000   0.0000   0.0000

          k = 0.0000 0.1925-0.1013 ( 10455 PWs)   bands (ev):

   -79.4746 -79.2927 -79.2403 -74.1959 -74.0774 -74.0603 -45.4755 -45.4112
   -45.4112 -45.2829 -45.2828 -45.2405 -45.2404 -45.1679 -45.1679 -40.3333
   -40.2807 -40.2807 -40.2142 -40.2113 -40.1672 -40.1672 -40.1486 -40.1486
   -10.5709 -10.5689 -10.5625 -10.5498 -10.5369 -10.5289 -10.5064 -10.5027
   -10.4957 -10.4939 -10.4848 -10.4795 -10.4725 -10.4650 -10.4387 -10.4323
   -10.4182 -10.4153 -10.4141 -10.4093 -10.4018 -10.3959 -10.3926 -10.3904
   -10.3895 -10.3851 -10.3629 -10.3577 -10.3551 -10.3530  -7.1595  -6.9107
    -6.5367  -6.1087  -5.7179  -5.6163  -5.5837  -5.4949  -5.4684  -5.4178
    -5.3820  -5.3181  -5.2559  -5.2373  -5.0418  -5.0224  -4.8535  -4.8346
     1.6157   1.7080   1.9122   2.2160   2.7384   3.0754   4.1800   4.2120
     4.3781   4.3914   4.6765   4.7273   4.8125   4.8541   4.8714   5.0394
     5.0849   5.1607   5.2098   5.5022   5.5211   5.6429   6.1643   6.4995
     6.5601   6.6365   6.8070   6.9315   7.0360   7.1606   7.2120   7.2869
     7.3797   7.5066   7.6050   7.7583   7.8508   7.9712   8.1209   8.2598
     8.3750   8.4532   8.4935   8.6861   8.8597   8.9484   9.1427   9.2109
     9.2917   9.3980   9.4590   9.5337   9.6456   9.7128   9.8500   9.8827
     9.9129   9.9856  10.0221  10.1085  10.2263  10.2768  10.3890  10.5389
    10.6389  10.6539  10.9648  11.0858  11.1440  11.2034  11.3578  11.4137
    11.6087  11.8662  11.9451  13.6963  13.7553  13.8468  13.9500  14.0186
    14.0360  14.1041  14.1489  14.1665  14.3376  14.3742  14.8442  14.9641
    15.3855  15.4727  15.6135  15.6572  15.9911  16.4616  16.6699  16.9017
    17.0082  17.0879  17.1724  17.3928  17.4383  17.5945  17.6636  17.6968

     occupation numbers 
     1.0000   1.0000   1.0000   1.0000   1.0000   1.0000   1.0000   1.0000
     1.0000   1.0000   1.0000   1.0000   1.0000   1.0000   1.0000   1.0000
     1.0000   1.0000   1.0000   1.0000   1.0000   1.0000   1.0000   1.0000
     1.0000   1.0000   1.0000   1.0000   1.0000   1.0000   1.0000   1.0000
     1.0000   1.0000   1.0000   1.0000   1.0000   1.0000   1.0000   1.0000
     1.0000   1.0000   1.0000   1.0000   1.0000   1.0000   1.0000   1.0000
     1.0000   1.0000   1.0000   1.0000   1.0000   1.0000   1.0000   1.0000
     1.0000   1.0000   1.0000   1.0000   1.0000   1.0000   1.0000   1.0000
     1.0000   1.0000   1.0000   1.0000   1.0000   1.0000   1.0000   1.0000
     1.0000   1.0000   1.0000   1.0000   1.0000   1.0000   1.0000   1.0000
     1.0000   1.0000   1.0000   1.0000   1.0000   1.0000   1.0000   1.0000
     1.0000   1.0000   1.0000   1.0000   1.0000   1.0000   1.0000   1.0000
     1.0000   1.0000   1.0000   1.0000   1.0000   1.0000   1.0000   1.0000
     1.0000   1.0000   1.0000   1.0000   1.0000   1.0000   1.0000   1.0000
     1.0000   1.0000   1.0000   1.0000   1.0000   1.0000   1.0000   1.0000
     1.0000   1.0000   1.0000   1.0000   1.0000   1.0000   1.0000   1.0000
     1.0000   1.0000   1.0000   1.0000   1.0000   1.0000   1.0000   1.0000
     1.0000   1.0000   1.0000   1.0000   1.0000   1.0000   1.0000   1.0000
     1.0000   1.0000   1.0000   0.0000   0.0000   0.0000   0.0000   0.0000
     0.0000   0.0000   0.0000   0.0000   0.0000   0.0000   0.0000   0.0000
     0.0000   0.0000   0.0000   0.0000   0.0000   0.0000   0.0000   0.0000
     0.0000   0.0000   0.0000   0.0000   0.0000   0.0000   0.0000   0.0000

          k = 0.0000 0.3849 0.0000 ( 10414 PWs)   bands (ev):

   -79.4746 -79.2927 -79.2403 -74.1959 -74.0774 -74.0603 -45.4755 -45.4112
   -45.4112 -45.2829 -45.2828 -45.2405 -45.2404 -45.1679 -45.1679 -40.3333
   -40.2807 -40.2807 -40.2142 -40.2113 -40.1672 -40.1671 -40.1486 -40.1486
   -10.5708 -10.5602 -10.5497 -10.5419 -10.5350 -10.5270 -10.5036 -10.4969
   -10.4898 -10.4875 -10.4761 -10.4748 -10.4692 -10.4684 -10.4382 -10.4318
   -10.4210 -10.4177 -10.4121 -10.4108 -10.4064 -10.4021 -10.3973 -10.3914
   -10.3897 -10.3840 -10.3708 -10.3661 -10.3602 -10.3543  -6.9139  -6.6014
    -6.4732  -6.1096  -5.8770  -5.7390  -5.6507  -5.5841  -5.5278  -5.4736
    -5.4331  -5.4053  -5.3021  -5.2690  -5.0889  -5.0589  -4.9034  -4.8436
     1.5704   1.7062   1.8957   2.1409   2.4071   2.6185   4.1872   4.2442
     4.4663   4.5074   4.6569   4.7599   4.8543   4.8866   4.9437   5.0542
     5.1054   5.2141   5.2895   5.3778   5.5919   5.9582   6.4973   6.5724
     6.6671   6.9102   7.0513   7.1333   7.2700   7.3123   7.3984   7.4449
     7.5919   7.7256   7.8119   7.9504   8.0009   8.1285   8.2406   8.3425
     8.4673   8.5819   8.6518   8.7659   8.8529   8.8867   8.9666   9.1098
     9.1897   9.2812   9.4509   9.5096   9.6333   9.7084   9.7392   9.7936
     9.8391   9.8872   9.9475   9.9936  10.0717  10.1392  10.2479  10.3306
    10.4947  10.6903  10.8635  10.9458  11.1064  11.1861  11.3791  11.4555
    11.5106  11.7220  11.9330  13.7007  13.7889  13.8265  13.9448  14.0135
    14.0861  14.1148  14.1716  14.2138  14.4212  14.5187  14.5837  14.9201
    15.0754  15.3093  15.5342  15.7676  15.8999  16.0567  16.1687  16.3222
    16.5189  16.5470  16.8190  17.2176  17.3098  17.3307  17.3836  17.6081

     occupation numbers 
     1.0000   1.0000   1.0000   1.0000   1.0000   1.0000   1.0000   1.0000
     1.0000   1.0000   1.0000   1.0000   1.0000   1.0000   1.0000   1.0000
     1.0000   1.0000   1.0000   1.0000   1.0000   1.0000   1.0000   1.0000
     1.0000   1.0000   1.0000   1.0000   1.0000   1.0000   1.0000   1.0000
     1.0000   1.0000   1.0000   1.0000   1.0000   1.0000   1.0000   1.0000
     1.0000   1.0000   1.0000   1.0000   1.0000   1.0000   1.0000   1.0000
     1.0000   1.0000   1.0000   1.0000   1.0000   1.0000   1.0000   1.0000
     1.0000   1.0000   1.0000   1.0000   1.0000   1.0000   1.0000   1.0000
     1.0000   1.0000   1.0000   1.0000   1.0000   1.0000   1.0000   1.0000
     1.0000   1.0000   1.0000   1.0000   1.0000   1.0000   1.0000   1.0000
     1.0000   1.0000   1.0000   1.0000   1.0000   1.0000   1.0000   1.0000
     1.0000   1.0000   1.0000   1.0000   1.0000   1.0000   1.0000   1.0000
     1.0000   1.0000   1.0000   1.0000   1.0000   1.0000   1.0000   1.0000
     1.0000   1.0000   1.0000   1.0000   1.0000   1.0000   1.0000   1.0000
     1.0000   1.0000   1.0000   1.0000   1.0000   1.0000   1.0000   1.0000
     1.0000   1.0000   1.0000   1.0000   1.0000   1.0000   1.0000   1.0000
     1.0000   1.0000   1.0000   1.0000   1.0000   1.0000   1.0000   1.0000
     1.0000   1.0000   1.0000   1.0000   1.0000   1.0000   1.0000   1.0000
     1.0000   1.0000   1.0000   0.0000   0.0000   0.0000   0.0000   0.0000
     0.0000   0.0000   0.0000   0.0000   0.0000   0.0000   0.0000   0.0000
     0.0000   0.0000   0.0000   0.0000   0.0000   0.0000   0.0000   0.0000
     0.0000   0.0000   0.0000   0.0000   0.0000   0.0000   0.0000   0.0000

          k = 0.0000 0.3849 0.1013 ( 10426 PWs)   bands (ev):

   -79.4746 -79.2927 -79.2403 -74.1959 -74.0774 -74.0603 -45.4755 -45.4112
   -45.4112 -45.2829 -45.2828 -45.2405 -45.2404 -45.1679 -45.1679 -40.3333
   -40.2807 -40.2807 -40.2142 -40.2113 -40.1672 -40.1671 -40.1486 -40.1486
   -10.5707 -10.5603 -10.5506 -10.5406 -10.5354 -10.5273 -10.5001 -10.4970
   -10.4933 -10.4890 -10.4778 -10.4748 -10.4677 -10.4667 -10.4385 -10.4321
   -10.4187 -10.4173 -10.4148 -10.4100 -10.4085 -10.4007 -10.3964 -10.3924
   -10.3896 -10.3840 -10.3711 -10.3658 -10.3596 -10.3548  -6.9020  -6.6622
    -6.4126  -6.0509  -5.9732  -5.7375  -5.6618  -5.5873  -5.5219  -5.4496
    -5.4178  -5.3795  -5.3111  -5.2861  -5.0929  -5.0624  -4.9021  -4.8437
     1.5790   1.7289   1.8257   2.2409   2.3289   2.6350   4.1874   4.2444
     4.4669   4.5067   4.6546   4.7617   4.8552   4.8864   4.9484   5.0535
     5.1026   5.2189   5.2894   5.3729   5.5929   5.9712   6.3975   6.6331
     6.7120   6.9660   7.0383   7.1287   7.2334   7.3064   7.3598   7.4570
     7.5511   7.6950   7.8145   7.9186   8.0769   8.1268   8.2670   8.3292
     8.4737   8.5685   8.7348   8.7814   8.8595   8.9245   8.9523   9.1218
     9.1738   9.2652   9.3754   9.5410   9.5793   9.6650   9.7225   9.7728
     9.8500   9.9406   9.9847  10.0142  10.0269  10.1032  10.2957  10.3259
    10.5181  10.6874  10.8491  10.9496  11.0867  11.2006  11.3678  11.4803
    11.5340  11.7057  11.9328  13.6999  13.7872  13.8262  13.9475  14.0133
    14.0849  14.1113  14.1640  14.2137  14.4205  14.5143  14.5887  14.9204
    15.0336  15.3313  15.5504  15.7663  15.9249  15.9886  16.0529  16.4542
    16.5983  16.6671  16.7142  17.1709  17.2496  17.3910  17.5096  17.5609

     occupation numbers 
     1.0000   1.0000   1.0000   1.0000   1.0000   1.0000   1.0000   1.0000
     1.0000   1.0000   1.0000   1.0000   1.0000   1.0000   1.0000   1.0000
     1.0000   1.0000   1.0000   1.0000   1.0000   1.0000   1.0000   1.0000
     1.0000   1.0000   1.0000   1.0000   1.0000   1.0000   1.0000   1.0000
     1.0000   1.0000   1.0000   1.0000   1.0000   1.0000   1.0000   1.0000
     1.0000   1.0000   1.0000   1.0000   1.0000   1.0000   1.0000   1.0000
     1.0000   1.0000   1.0000   1.0000   1.0000   1.0000   1.0000   1.0000
     1.0000   1.0000   1.0000   1.0000   1.0000   1.0000   1.0000   1.0000
     1.0000   1.0000   1.0000   1.0000   1.0000   1.0000   1.0000   1.0000
     1.0000   1.0000   1.0000   1.0000   1.0000   1.0000   1.0000   1.0000
     1.0000   1.0000   1.0000   1.0000   1.0000   1.0000   1.0000   1.0000
     1.0000   1.0000   1.0000   1.0000   1.0000   1.0000   1.0000   1.0000
     1.0000   1.0000   1.0000   1.0000   1.0000   1.0000   1.0000   1.0000
     1.0000   1.0000   1.0000   1.0000   1.0000   1.0000   1.0000   1.0000
     1.0000   1.0000   1.0000   1.0000   1.0000   1.0000   1.0000   1.0000
     1.0000   1.0000   1.0000   1.0000   1.0000   1.0000   1.0000   1.0000
     1.0000   1.0000   1.0000   1.0000   1.0000   1.0000   1.0000   1.0000
     1.0000   1.0000   1.0000   1.0000   1.0000   1.0000   1.0000   1.0000
[...]
     0.0000   0.0000   0.0000   0.0000   0.0000   0.0000   0.0000   0.0000
     0.0000   0.0000   0.0000   0.0000   0.0000   0.0000   0.0000   0.0000

          k =-0.5000 0.0962-0.2026 ( 10400 PWs)   bands (ev):

   -79.4784 -79.2938 -79.2431 -74.1923 -74.0763 -74.0576 -45.4793 -45.4148
   -45.4148 -45.2855 -45.2840 -45.2415 -45.2415 -45.1706 -45.1706 -40.3297
   -40.2773 -40.2772 -40.2131 -40.2087 -40.1661 -40.1661 -40.1461 -40.1460
   -10.5656 -10.5539 -10.5481 -10.5387 -10.5367 -10.5268 -10.4981 -10.4919
   -10.4885 -10.4848 -10.4811 -10.4757 -10.4662 -10.4623 -10.4389 -10.4306
   -10.4216 -10.4183 -10.4133 -10.4101 -10.4068 -10.4018 -10.4002 -10.3935
   -10.3907 -10.3822 -10.3757 -10.3678 -10.3653 -10.3575  -6.6595  -6.5164
    -6.3142  -6.1457  -6.0777  -5.8658  -5.6873  -5.6196  -5.5732  -5.4996
    -5.4708  -5.3828  -5.3393  -5.2895  -5.1596  -5.0270  -4.9206  -4.8574
     1.6265   1.8005   1.8700   2.0882   2.1737   2.3620   4.1978   4.3101
     4.4475   4.5189   4.6544   4.8140   4.9031   4.9593   5.0002   5.0506
     5.1459   5.2142   5.2577   5.3475   5.4917   6.2492   6.5891   6.6954
     6.8670   6.9365   7.1092   7.1989   7.3042   7.3712   7.4695   7.6136
     7.6667   7.7826   7.9367   8.0825   8.1072   8.1996   8.3056   8.3337
     8.4218   8.4843   8.6123   8.7422   8.8691   8.9209   8.9643   9.1428
     9.1747   9.2929   9.3317   9.4162   9.5073   9.6466   9.7654   9.8074
     9.8806   9.9181   9.9875  10.0492  10.1203  10.1554  10.2131  10.3170
    10.4113  10.7015  10.7913  11.0091  11.0896  11.1893  11.2993  11.3812
    11.4302  11.5764  11.8512  13.6915  13.7836  13.8608  13.9388  14.0390
    14.1097  14.1198  14.1626  14.2772  14.4540  14.5223  14.6514  14.7476
    15.0370  15.3310  15.4543  15.5795  15.6671  15.7690  15.8433  16.0573
    16.6114  16.7399  16.8468  16.9832  17.0538  17.1575  17.2294  17.3676

     occupation numbers 
     1.0000   1.0000   1.0000   1.0000   1.0000   1.0000   1.0000   1.0000
     1.0000   1.0000   1.0000   1.0000   1.0000   1.0000   1.0000   1.0000
     1.0000   1.0000   1.0000   1.0000   1.0000   1.0000   1.0000   1.0000
     1.0000   1.0000   1.0000   1.0000   1.0000   1.0000   1.0000   1.0000
     1.0000   1.0000   1.0000   1.0000   1.0000   1.0000   1.0000   1.0000
     1.0000   1.0000   1.0000   1.0000   1.0000   1.0000   1.0000   1.0000
     1.0000   1.0000   1.0000   1.0000   1.0000   1.0000   1.0000   1.0000
     1.0000   1.0000   1.0000   1.0000   1.0000   1.0000   1.0000   1.0000
     1.0000   1.0000   1.0000   1.0000   1.0000   1.0000   1.0000   1.0000
     1.0000   1.0000   1.0000   1.0000   1.0000   1.0000   1.0000   1.0000
     1.0000   1.0000   1.0000   1.0000   1.0000   1.0000   1.0000   1.0000
     1.0000   1.0000   1.0000   1.0000   1.0000   1.0000   1.0000   1.0000
     1.0000   1.0000   1.0000   1.0000   1.0000   1.0000   1.0000   1.0000
     1.0000   1.0000   1.0000   1.0000   1.0000   1.0000   1.0000   1.0000
     1.0000   1.0000   1.0000   1.0000   1.0000   1.0000   1.0000   1.0000
     1.0000   1.0000   1.0000   1.0000   1.0000   1.0000   1.0000   1.0000
     1.0000   1.0000   1.0000   1.0000   1.0000   1.0000   1.0000   1.0000
     1.0000   1.0000   1.0000   1.0000   1.0000   1.0000   1.0000   1.0000
     1.0000   1.0000   1.0000   0.0000   0.0000   0.0000   0.0000   0.0000
     0.0000   0.0000   0.0000   0.0000   0.0000   0.0000   0.0000   0.0000
     0.0000   0.0000   0.0000   0.0000   0.0000   0.0000   0.0000   0.0000
     0.0000   0.0000   0.0000   0.0000   0.0000   0.0000   0.0000   0.0000

          k =-0.5000 0.0962-0.1013 ( 10410 PWs)   bands (ev):

   -79.4784 -79.2938 -79.2431 -74.1923 -74.0763 -74.0576 -45.4793 -45.4148
   -45.4148 -45.2855 -45.2840 -45.2415 -45.2415 -45.1706 -45.1706 -40.3297
   -40.2773 -40.2772 -40.2131 -40.2087 -40.1661 -40.1661 -40.1461 -40.1460
   -10.5649 -10.5551 -10.5485 -10.5384 -10.5359 -10.5266 -10.4989 -10.4926
   -10.4882 -10.4848 -10.4810 -10.4736 -10.4676 -10.4620 -10.4391 -10.4306
   -10.4227 -10.4172 -10.4140 -10.4093 -10.4076 -10.4018 -10.3999 -10.3930
   -10.3911 -10.3822 -10.3758 -10.3678 -10.3650 -10.3577  -6.6743  -6.4681
    -6.3477  -6.1824  -6.0367  -5.8637  -5.7124  -5.6132  -5.5704  -5.5000
    -5.4361  -5.3832  -5.3464  -5.3062  -5.1648  -5.0236  -4.9192  -4.8574
     1.6318   1.7723   1.8850   2.0980   2.1875   2.3474   4.1983   4.3076
     4.4447   4.5212   4.6552   4.8106   4.9080   4.9584   4.9927   5.0521
     5.1500   5.2137   5.2563   5.3459   5.4942   6.2397   6.6354   6.7117
     6.8148   6.9115   7.1287   7.2090   7.2582   7.4277   7.4852   7.5921
     7.6751   7.8061   7.9532   8.0273   8.1392   8.2165   8.2642   8.3515
     8.4072   8.5015   8.5708   8.7378   8.8635   8.9647   8.9796   9.0434
     9.1532   9.2732   9.3668   9.4679   9.4872   9.6808   9.7588   9.8284
     9.8778   9.9419   9.9659  10.0375  10.0987  10.1362  10.2340  10.3240
    10.4588  10.6695  10.8310  10.9912  11.0638  11.1893  11.3144  11.3609
    11.4672  11.5534  11.8500  13.6938  13.7824  13.8620  13.9354  14.0401
    14.0992  14.1266  14.1531  14.2793  14.4531  14.5102  14.6364  14.7629
    15.0109  15.3035  15.4469  15.5901  15.7116  15.8546  15.9651  16.0480
    16.4596  16.5915  16.7002  17.0866  17.1196  17.2036  17.3043  17.4036

     occupation numbers 
     1.0000   1.0000   1.0000   1.0000   1.0000   1.0000   1.0000   1.0000
     1.0000   1.0000   1.0000   1.0000   1.0000   1.0000   1.0000   1.0000
     1.0000   1.0000   1.0000   1.0000   1.0000   1.0000   1.0000   1.0000
     1.0000   1.0000   1.0000   1.0000   1.0000   1.0000   1.0000   1.0000
     1.0000   1.0000   1.0000   1.0000   1.0000   1.0000   1.0000   1.0000
     1.0000   1.0000   1.0000   1.0000   1.0000   1.0000   1.0000   1.0000
     1.0000   1.0000   1.0000   1.0000   1.0000   1.0000   1.0000   1.0000
     1.0000   1.0000   1.0000   1.0000   1.0000   1.0000   1.0000   1.0000
     1.0000   1.0000   1.0000   1.0000   1.0000   1.0000   1.0000   1.0000
     1.0000   1.0000   1.0000   1.0000   1.0000   1.0000   1.0000   1.0000
     1.0000   1.0000   1.0000   1.0000   1.0000   1.0000   1.0000   1.0000
     1.0000   1.0000   1.0000   1.0000   1.0000   1.0000   1.0000   1.0000
     1.0000   1.0000   1.0000   1.0000   1.0000   1.0000   1.0000   1.0000
     1.0000   1.0000   1.0000   1.0000   1.0000   1.0000   1.0000   1.0000
     1.0000   1.0000   1.0000   1.0000   1.0000   1.0000   1.0000   1.0000
     1.0000   1.0000   1.0000   1.0000   1.0000   1.0000   1.0000   1.0000
     1.0000   1.0000   1.0000   1.0000   1.0000   1.0000   1.0000   1.0000
     1.0000   1.0000   1.0000   1.0000   1.0000   1.0000   1.0000   1.0000
     1.0000   1.0000   1.0000   0.0000   0.0000   0.0000   0.0000   0.0000
     0.0000   0.0000   0.0000   0.0000   0.0000   0.0000   0.0000   0.0000
     0.0000   0.0000   0.0000   0.0000   0.0000   0.0000   0.0000   0.0000
     0.0000   0.0000   0.0000   0.0000   0.0000   0.0000   0.0000   0.0000

          k =-0.5000-0.8660 0.0000 ( 10416 PWs)   bands (ev):

   -79.4784 -79.2938 -79.2431 -74.1923 -74.0763 -74.0576 -45.4793 -45.4148
   -45.4148 -45.2855 -45.2840 -45.2415 -45.2415 -45.1706 -45.1706 -40.3297
   -40.2773 -40.2772 -40.2131 -40.2087 -40.1661 -40.1661 -40.1461 -40.1460
   -10.5744 -10.5542 -10.5404 -10.5372 -10.5313 -10.5267 -10.5093 -10.4919
   -10.4874 -10.4827 -10.4738 -10.4726 -10.4668 -10.4639 -10.4418 -10.4318
   -10.4244 -10.4188 -10.4128 -10.4094 -10.4085 -10.4039 -10.4010 -10.3913
   -10.3901 -10.3818 -10.3780 -10.3701 -10.3640 -10.3526  -6.5792  -6.5363
    -6.3740  -6.1827  -6.1379  -5.7748  -5.7142  -5.6210  -5.5249  -5.4653
    -5.4521  -5.4283  -5.3551  -5.3149  -5.1056  -5.0444  -4.9408  -4.8508
     1.5256   1.8252   1.8747   2.1192   2.1915   2.4064   4.1866   4.3347
     4.4193   4.4617   4.5840   4.8311   4.9342   4.9701   5.0100   5.0434
     5.0895   5.2144   5.2754   5.3921   5.6178   6.2954   6.4820   6.7121
     6.7474   6.8789   7.1729   7.2168   7.2864   7.4187   7.4906   7.5535
     7.6589   7.8271   7.8843   8.0113   8.1836   8.3227   8.3421   8.4361
     8.5072   8.5732   8.5910   8.6522   8.7065   8.8473   8.9271   9.0392
     9.1246   9.2888   9.3435   9.4083   9.6506   9.7172   9.8100   9.8719
     9.8983   9.9139   9.9679  10.0562  10.1185  10.1762  10.2341  10.2707
    10.5418  10.7499  10.7620  10.9076  10.9547  11.1521  11.2368  11.3550
    11.4636  11.5501  11.9070  13.7037  13.8001  13.8917  13.9170  13.9665
    14.0668  14.1158  14.1510  14.2778  14.3637  14.5208  14.6452  14.8263
    14.8941  15.2643  15.4409  15.7773  15.8457  15.9851  16.0708  16.1246
    16.2226  16.2736  16.3517  17.0962  17.2562  17.3748  17.4439  17.5276

     occupation numbers 
     1.0000   1.0000   1.0000   1.0000   1.0000   1.0000   1.0000   1.0000
     1.0000   1.0000   1.0000   1.0000   1.0000   1.0000   1.0000   1.0000
     1.0000   1.0000   1.0000   1.0000   1.0000   1.0000   1.0000   1.0000
     1.0000   1.0000   1.0000   1.0000   1.0000   1.0000   1.0000   1.0000
     1.0000   1.0000   1.0000   1.0000   1.0000   1.0000   1.0000   1.0000
     1.0000   1.0000   1.0000   1.0000   1.0000   1.0000   1.0000   1.0000
     1.0000   1.0000   1.0000   1.0000   1.0000   1.0000   1.0000   1.0000
     1.0000   1.0000   1.0000   1.0000   1.0000   1.0000   1.0000   1.0000
     1.0000   1.0000   1.0000   1.0000   1.0000   1.0000   1.0000   1.0000
     1.0000   1.0000   1.0000   1.0000   1.0000   1.0000   1.0000   1.0000
     1.0000   1.0000   1.0000   1.0000   1.0000   1.0000   1.0000   1.0000
     1.0000   1.0000   1.0000   1.0000   1.0000   1.0000   1.0000   1.0000
     1.0000   1.0000   1.0000   1.0000   1.0000   1.0000   1.0000   1.0000
     1.0000   1.0000   1.0000   1.0000   1.0000   1.0000   1.0000   1.0000
     1.0000   1.0000   1.0000   1.0000   1.0000   1.0000   1.0000   1.0000
     1.0000   1.0000   1.0000   1.0000   1.0000   1.0000   1.0000   1.0000
     1.0000   1.0000   1.0000   1.0000   1.0000   1.0000   1.0000   1.0000
     1.0000   1.0000   1.0000   1.0000   1.0000   1.0000   1.0000   1.0000
     1.0000   1.0000   1.0000   0.0000   0.0000   0.0000   0.0000   0.0000
     0.0000   0.0000   0.0000   0.0000   0.0000   0.0000   0.0000   0.0000
     0.0000   0.0000   0.0000   0.0000   0.0000   0.0000   0.0000   0.0000
     0.0000   0.0000   0.0000   0.0000   0.0000   0.0000   0.0000   0.0000

          k =-0.5000-0.8660 0.1013 ( 10398 PWs)   bands (ev):

   -79.4784 -79.2938 -79.2431 -74.1923 -74.0763 -74.0576 -45.4793 -45.4148
   -45.4148 -45.2855 -45.2840 -45.2415 -45.2415 -45.1706 -45.1706 -40.3297
   -40.2773 -40.2772 -40.2131 -40.2087 -40.1661 -40.1661 -40.1461 -40.1460
   -10.5728 -10.5571 -10.5405 -10.5372 -10.5314 -10.5268 -10.5050 -10.4920
   -10.4877 -10.4830 -10.4748 -10.4731 -10.4668 -10.4650 -10.4419 -10.4320
   -10.4229 -10.4178 -10.4142 -10.4112 -10.4077 -10.4041 -10.3996 -10.3915
   -10.3901 -10.3819 -10.3779 -10.3701 -10.3629 -10.3535  -6.5799  -6.5247
    -6.3821  -6.2520  -6.0475  -5.7882  -5.7184  -5.6195  -5.5494  -5.4840
    -5.4442  -5.4178  -5.3358  -5.3160  -5.1043  -5.0450  -4.9426  -4.8509
     1.5400   1.7652   1.9334   2.0759   2.2374   2.3898   4.1866   4.3340
     4.4204   4.4610   4.5837   4.8320   4.9339   4.9687   5.0044   5.0505
     5.0921   5.2140   5.2778   5.3933   5.6192   6.2676   6.4974   6.7019
     6.7875   6.9264   7.1389   7.1807   7.2798   7.4111   7.4916   7.5577
     7.6496   7.8051   7.8950   8.0117   8.1776   8.2753   8.3447   8.4352
     8.4762   8.5005   8.6230   8.6644   8.8135   8.9142   8.9787   9.0523
     9.1448   9.2026   9.4059   9.4663   9.6342   9.6899   9.7636   9.8149
     9.8899   9.9337   9.9696  10.0669  10.1059  10.1507  10.2018  10.2751
    10.5129  10.7159  10.7943  10.9285  10.9950  11.1432  11.2708  11.3560
    11.4586  11.5237  11.9121  13.7061  13.7966  13.8896  13.9173  13.9652
    14.0832  14.1145  14.1482  14.2760  14.3875  14.5266  14.6560  14.7997
    14.8962  15.2631  15.4658  15.7011  15.7824  15.8386  16.0715  16.2323
    16.2905  16.3216  16.6035  17.0304  17.1166  17.2824  17.3704  17.4448

     occupation numbers 
     1.0000   1.0000   1.0000   1.0000   1.0000   1.0000   1.0000   1.0000
     1.0000   1.0000   1.0000   1.0000   1.0000   1.0000   1.0000   1.0000
     1.0000   1.0000   1.0000   1.0000   1.0000   1.0000   1.0000   1.0000
     1.0000   1.0000   1.0000   1.0000   1.0000   1.0000   1.0000   1.0000
     1.0000   1.0000   1.0000   1.0000   1.0000   1.0000   1.0000   1.0000
     1.0000   1.0000   1.0000   1.0000   1.0000   1.0000   1.0000   1.0000
     1.0000   1.0000   1.0000   1.0000   1.0000   1.0000   1.0000   1.0000
     1.0000   1.0000   1.0000   1.0000   1.0000   1.0000   1.0000   1.0000
     1.0000   1.0000   1.0000   1.0000   1.0000   1.0000   1.0000   1.0000
     1.0000   1.0000   1.0000   1.0000   1.0000   1.0000   1.0000   1.0000
     1.0000   1.0000   1.0000   1.0000   1.0000   1.0000   1.0000   1.0000
     1.0000   1.0000   1.0000   1.0000   1.0000   1.0000   1.0000   1.0000
     1.0000   1.0000   1.0000   1.0000   1.0000   1.0000   1.0000   1.0000
     1.0000   1.0000   1.0000   1.0000   1.0000   1.0000   1.0000   1.0000
     1.0000   1.0000   1.0000   1.0000   1.0000   1.0000   1.0000   1.0000
     1.0000   1.0000   1.0000   1.0000   1.0000   1.0000   1.0000   1.0000
     1.0000   1.0000   1.0000   1.0000   1.0000   1.0000   1.0000   1.0000
     1.0000   1.0000   1.0000   1.0000   1.0000   1.0000   1.0000   1.0000
     1.0000   1.0000   1.0000   0.0000   0.0000   0.0000   0.0000   0.0000
     0.0000   0.0000   0.0000   0.0000   0.0000   0.0000   0.0000   0.0000
     0.0000   0.0000   0.0000   0.0000   0.0000   0.0000   0.0000   0.0000
     0.0000   0.0000   0.0000   0.0000   0.0000   0.0000   0.0000   0.0000

          k =-0.5000-0.8660-0.2026 ( 10380 PWs)   bands (ev):

   -79.4784 -79.2938 -79.2431 -74.1923 -74.0763 -74.0576 -45.4793 -45.4148
   -45.4148 -45.2855 -45.2840 -45.2415 -45.2415 -45.1706 -45.1706 -40.3297
   -40.2773 -40.2772 -40.2131 -40.2087 -40.1661 -40.1661 -40.1461 -40.1460
   -10.5706 -10.5605 -10.5405 -10.5372 -10.5314 -10.5268 -10.4992 -10.4933
   -10.4884 -10.4832 -10.4764 -10.4733 -10.4671 -10.4658 -10.4420 -10.4323
   -10.4204 -10.4174 -10.4155 -10.4126 -10.4071 -10.4044 -10.3983 -10.3918
   -10.3901 -10.3819 -10.3779 -10.3702 -10.3616 -10.3547  -6.5800  -6.5116
    -6.3919  -6.2869  -5.9750  -5.8363  -5.6925  -5.6229  -5.5776  -5.5053
    -5.4344  -5.4023  -5.3261  -5.3154  -5.1030  -5.0454  -4.9445  -4.8511
     1.5583   1.7241   1.9859   2.0286   2.2790   2.3650   4.1866   4.3334
     4.4213   4.4605   4.5834   4.8330   4.9335   4.9672   5.0000   5.0562
     5.0947   5.2135   5.2803   5.3945   5.6206   6.2450   6.5031   6.7021
     6.8372   6.9954   7.0615   7.1515   7.2826   7.3976   7.4817   7.5564
     7.6462   7.7924   7.8976   8.0159   8.1832   8.2401   8.3473   8.4243
     8.4515   8.4830   8.6216   8.6864   8.8471   8.9365   9.0310   9.1021
     9.1373   9.2688   9.4571   9.5440   9.5549   9.6254   9.6930   9.8087
     9.8627   9.9477   9.9767  10.0250  10.0776  10.1309  10.2064  10.3058
    10.4899  10.7078  10.7810  10.9547  11.0385  11.1306  11.3107  11.3581
    11.4532  11.4896  11.9170  13.7082  13.7933  13.8875  13.9180  13.9640
    14.0945  14.1157  14.1474  14.2747  14.4116  14.5348  14.6736  14.7663
    14.8966  15.2681  15.5037  15.6148  15.7136  15.7442  16.1786  16.2440
    16.3313  16.4206  16.8922  16.9531  17.0114  17.0482  17.3229  17.3814

     occupation numbers 
     1.0000   1.0000   1.0000   1.0000   1.0000   1.0000   1.0000   1.0000
     1.0000   1.0000   1.0000   1.0000   1.0000   1.0000   1.0000   1.0000
     1.0000   1.0000   1.0000   1.0000   1.0000   1.0000   1.0000   1.0000
     1.0000   1.0000   1.0000   1.0000   1.0000   1.0000   1.0000   1.0000
     1.0000   1.0000   1.0000   1.0000   1.0000   1.0000   1.0000   1.0000
     1.0000   1.0000   1.0000   1.0000   1.0000   1.0000   1.0000   1.0000
     1.0000   1.0000   1.0000   1.0000   1.0000   1.0000   1.0000   1.0000
     1.0000   1.0000   1.0000   1.0000   1.0000   1.0000   1.0000   1.0000
     1.0000   1.0000   1.0000   1.0000   1.0000   1.0000   1.0000   1.0000
     1.0000   1.0000   1.0000   1.0000   1.0000   1.0000   1.0000   1.0000
     1.0000   1.0000   1.0000   1.0000   1.0000   1.0000   1.0000   1.0000
     1.0000   1.0000   1.0000   1.0000   1.0000   1.0000   1.0000   1.0000
     1.0000   1.0000   1.0000   1.0000   1.0000   1.0000   1.0000   1.0000
     1.0000   1.0000   1.0000   1.0000   1.0000   1.0000   1.0000   1.0000
     1.0000   1.0000   1.0000   1.0000   1.0000   1.0000   1.0000   1.0000
     1.0000   1.0000   1.0000   1.0000   1.0000   1.0000   1.0000   1.0000
     1.0000   1.0000   1.0000   1.0000   1.0000   1.0000   1.0000   1.0000
     1.0000   1.0000   1.0000   1.0000   1.0000   1.0000   1.0000   1.0000
     1.0000   1.0000   1.0000   0.0000   0.0000   0.0000   0.0000   0.0000
     0.0000   0.0000   0.0000   0.0000   0.0000   0.0000   0.0000   0.0000
     0.0000   0.0000   0.0000   0.0000   0.0000   0.0000   0.0000   0.0000
     0.0000   0.0000   0.0000   0.0000   0.0000   0.0000   0.0000   0.0000

     the Fermi energy is    11.9527 ev
     (compare with:    13.5996 eV, computed in scf)

     Writing output data file /home/aldair1809/Documentos/QE/4BFO/temp_tipoA/nscf/bifeo3.save/

     init_run     :    316.50s CPU    318.04s WALL (       1 calls)
     electrons    :  41679.82s CPU  42041.94s WALL (       1 calls)

     Called by init_run:
     wfcinit      :    312.31s CPU    313.27s WALL (       1 calls)
     wfcinit:atom :      0.83s CPU      0.86s WALL (     152 calls)
     wfcinit:wfcr :    787.25s CPU    792.74s WALL (     152 calls)
     potinit      :      0.36s CPU      0.41s WALL (       1 calls)
     hinit0       :      1.52s CPU      1.54s WALL (       1 calls)

     Called by electrons:
     c_bands      :  41679.48s CPU  42041.58s WALL (       1 calls)
     v_of_rho     :      0.29s CPU      0.34s WALL (       1 calls)
     v_h          :      0.01s CPU      0.02s WALL (       1 calls)
     v_xc         :      0.28s CPU      0.32s WALL (       1 calls)
     newd         :      2.19s CPU      2.69s WALL (       1 calls)

     Called by c_bands:
     init_us_2    :      2.86s CPU      2.90s WALL (     304 calls)
     ccgdiagg     :  37861.34s CPU  38189.18s WALL (     847 calls)
     wfcrot       :   3808.61s CPU   3836.48s WALL (     847 calls)

     Called by sum_band:

     Called by *cgdiagg:
     h_psi        :  18778.84s CPU  19055.64s WALL ( 1145270 calls)
     s_psi        :  11641.17s CPU  11675.55s WALL ( 2289845 calls)

     Called by h_psi:
     h_psi:calbec :   6410.19s CPU   6473.53s WALL ( 1145270 calls)
     vloc_psi     :   4677.97s CPU   4869.81s WALL ( 1145270 calls)
     add_vuspsi   :   6111.81s CPU   6124.85s WALL ( 1145270 calls)
     vhpsi        :   1540.91s CPU   1552.21s WALL ( 1145270 calls)
     hs_1psi      :  22000.98s CPU  22269.09s WALL ( 1144423 calls)
     s_1psi       :  10986.03s CPU  11024.45s WALL ( 1144423 calls)

     General routines
     calbec       :  13282.77s CPU  13383.05s WALL ( 3435115 calls)
     fft          :      0.21s CPU      0.23s WALL (      23 calls)
     ffts         :      0.01s CPU      0.01s WALL (       2 calls)
     fftw         :   4181.79s CPU   4363.95s WALL ( 2595502 calls)
     interpolate  :      0.03s CPU      0.03s WALL (       2 calls)
     davcio       :      0.15s CPU     63.24s WALL (     608 calls)

     Parallel routines
     fft_scatt_xy :    450.68s CPU    479.14s WALL ( 2595527 calls)
     fft_scatt_yz :    946.72s CPU   1022.69s WALL ( 2595527 calls)

     Hubbard U routines
     vhpsi        :   1540.91s CPU   1552.21s WALL ( 1145270 calls)

     PWSCF        :     11h40m CPU     11h47m WALL


   This run was terminated on:   9:14:26  30Oct2024            

=------------------------------------------------------------------------------=
   JOB DONE.
=------------------------------------------------------------------------------=
