
     Program PWSCF v.6.7MaX starts on 16Dec2024 at  7:32:24 

     This program is part of the open-source Quantum ESPRESSO suite
     for quantum simulation of materials; please cite
         "P. Giannozzi et al., J. Phys.:Condens. Matter 21 395502 (2009);
         "P. Giannozzi et al., J. Phys.:Condens. Matter 29 465901 (2017);
          URL http://www.quantum-espresso.org", 
     in publications or presentations arising from this work. More details at
     http://www.quantum-espresso.org/quote

     Parallel version (MPI), running on     6 processors

     MPI processes distributed on     1 nodes
     R & G space division:  proc/nbgrp/npool/nimage =       6
     Reading input from scf.bifeo3.in

     Current dimensions of program PWSCF are:
     Max number of different atomic species (ntypx) = 10
     Max number of k-points (npk) =  40000
     Max angular momentum in pseudopotentials (lmaxx) =  3
     Message from routine iosys:
     wrong startingpot: use default (1)

     Subspace diagonalization in iterative solution of the eigenvalue problem:
     one sub-group per band group will be used
     scalapack distributed-memory algorithm (size of sub-group:  2*  2 procs)


     Parallelization info
     --------------------
     sticks:   dense  smooth     PW     G-vecs:    dense   smooth      PW
     Min         400     198     57                39001    13755    2108
     Max         402     202     59                39005    13763    2113
     Sum        2407    1201    349               234021    82543   12667



     bravais-lattice index     =            4
     lattice parameter (alat)  =      10.4357  a.u.
     unit-cell volume          =    2419.7788 (a.u.)^3
     number of atoms/cell      =           30
     number of atomic types    =            4
     number of electrons       =       294.00
     number of Kohn-Sham states=          176
     kinetic-energy cutoff     =      40.0000  Ry
     charge density cutoff     =     320.0000  Ry
     scf convergence threshold =      1.0E-07
     mixing beta               =       0.4000
     number of iterations used =            8  plain     mixing
     Exchange-correlation=  SLA  PW   PBX  PBC
                           (   1   4   3   4   0   0   0)

     celldm(1)=  10.435734  celldm(2)=   0.000000  celldm(3)=   2.458533
     celldm(4)=   0.000000  celldm(5)=   0.000000  celldm(6)=   0.000000

     crystal axes: (cart. coord. in units of alat)
               a(1) = (   1.000000   0.000000   0.000000 )  
               a(2) = (  -0.500000   0.866025   0.000000 )  
               a(3) = (   0.000000   0.000000   2.458533 )  

     reciprocal axes: (cart. coord. in units 2 pi/alat)
               b(1) = (  1.000000  0.577350 -0.000000 )  
               b(2) = (  0.000000  1.154701  0.000000 )  
               b(3) = (  0.000000 -0.000000  0.406747 )  


     PseudoPot. # 1 for O  read from file:
     /home/aldair1809/Programas/QE/q-e-qe-7.3/pseudo/o_pbe_v1.2.uspp.F.UPF
     MD5 check sum: 734c27235a0248c51dbae37a1fbe46ec
     Pseudo is Ultrasoft + core correction, Zval =  6.0
     Generated by new atomic code, or converted to UPF format
     Using radial grid of  737 points,  5 beta functions with: 
                l(1) =   0
                l(2) =   0
                l(3) =   1
                l(4) =   1
                l(5) =   2
     Q(r) pseudized with  8 coefficients,  rinner =    0.900   0.900   0.900
                                                       0.900   0.900

     PseudoPot. # 2 for Bi read from file:
     /home/aldair1809/Programas/QE/q-e-qe-7.3/pseudo/bi_pbe_v1.uspp.F.UPF
     MD5 check sum: cceb9f28ec65b6d7ff33140f5b0b1758
     Pseudo is Ultrasoft + core correction, Zval = 15.0
     Generated by new atomic code, or converted to UPF format
     Using radial grid of  899 points,  6 beta functions with: 
                l(1) =   0
                l(2) =   0
                l(3) =   1
                l(4) =   1
                l(5) =   2
                l(6) =   2
     Q(r) pseudized with  6 coefficients,  rinner =    1.000   1.000   1.000
                                                       1.000   1.000

     PseudoPot. # 3 for Fe read from file:
     /home/aldair1809/Programas/QE/q-e-qe-7.3/pseudo/fe_pbe_v1.5.uspp.F.UPF
     MD5 check sum: a130daea23fe5165f5d574ae7f82ed95
     Pseudo is Ultrasoft + core correction, Zval = 16.0
     Generated by new atomic code, or converted to UPF format
     Using radial grid of  861 points,  6 beta functions with: 
                l(1) =   0
                l(2) =   0
                l(3) =   1
                l(4) =   1
                l(5) =   2
                l(6) =   2
     Q(r) pseudized with  8 coefficients,  rinner =    1.000   1.000   1.000
                                                       1.000   1.000

     PseudoPot. # 4 for Fe read from file:
     /home/aldair1809/Programas/QE/q-e-qe-7.3/pseudo/fe_pbe_v1.5.uspp.F.UPF
     MD5 check sum: a130daea23fe5165f5d574ae7f82ed95
     Pseudo is Ultrasoft + core correction, Zval = 16.0
     Generated by new atomic code, or converted to UPF format
     Using radial grid of  861 points,  6 beta functions with: 
                l(1) =   0
                l(2) =   0
                l(3) =   1
                l(4) =   1
                l(5) =   2
                l(6) =   2
     Q(r) pseudized with  8 coefficients,  rinner =    1.000   1.000   1.000
                                                       1.000   1.000

     atomic species   valence    mass     pseudopotential
        O              6.00    15.99940     O ( 1.00)
        Bi            15.00   208.98040     Bi( 1.00)
        Fe1           16.00    55.84500     Fe( 1.00)
        Fe2           16.00    55.84500     Fe( 1.00)

     Starting magnetic structure 
     atomic species   magnetization
        O            0.000
        Bi           0.000
        Fe1         -0.800
        Fe2          0.800


     Simplified LDA+U calculation (l_max = 2) with parameters (eV):
     atomic species    L          U    alpha       J0     beta
        Fe1            2     4.1000   0.0000   0.0000   0.0000
        Fe2            2     4.1000   0.0000   0.0000   0.0000



      3 Sym. Ops. (no inversion) found


                                    s                        frac. trans.

      isym =  1     identity                                     

 cryst.   s( 1) = (     1          0          0      )
                  (     0          1          0      )
                  (     0          0          1      )

 cart.    s( 1) = (  1.0000000  0.0000000  0.0000000 )
                  (  0.0000000  1.0000000  0.0000000 )
                  (  0.0000000  0.0000000  1.0000000 )


      isym =  2     120 deg rotation - cryst. axis [0,0,1]       

 cryst.   s( 2) = (     0          1          0      )
                  (    -1         -1          0      )
                  (     0          0          1      )

 cart.    s( 2) = ( -0.5000000 -0.8660254  0.0000000 )
                  (  0.8660254 -0.5000000  0.0000000 )
                  (  0.0000000  0.0000000  1.0000000 )


      isym =  3     120 deg rotation - cryst. axis [0,0,-1]      

 cryst.   s( 3) = (    -1         -1          0      )
                  (     1          0          0      )
                  (     0          0          1      )

 cart.    s( 3) = ( -0.5000000  0.8660254  0.0000000 )
                  ( -0.8660254 -0.5000000  0.0000000 )
                  (  0.0000000  0.0000000  1.0000000 )


     point group C_3 (3)    
     there are  3 classes
     the character table:

       E     C3    C3^2 
A      1.00  1.00  1.00
E      1.00 -0.50 -0.50
E*     1.00 -0.50 -0.50
     imaginary part
A      0.00  0.00  0.00
E      0.00  0.87 -0.87
E*     0.00 -0.87  0.87

     the symmetry operations in each class and the name of the first element:

     E        1
          identity                                               
     C3       2
          120 deg rotation - cryst. axis [0,0,1]                 
     C3^2     3
          120 deg rotation - cryst. axis [0,0,-1]                

   Cartesian axes

     site n.     atom                  positions (alat units)
         1           Fe2 tau(   1) = (   0.0000000   0.0000000   1.9108937  )
         2           Fe1 tau(   2) = (  -0.0000005   0.5773506   2.3205983  )
         3           Fe1 tau(   3) = (   0.5000005   0.2886748   1.5012165  )
         4           Fe2 tau(   4) = (   0.5000005   0.2886748   0.2719883  )
         5           Fe1 tau(   5) = (   0.0000000   0.0000000   0.6816731  )
         6           Fe2 tau(   6) = (  -0.0000005   0.5773506   1.0913263  )
         7           Bi  tau(   7) = (   0.5000005   0.2886748   2.0662347  )
         8           Bi  tau(   8) = (  -0.0000005   0.5773506   1.6560675  )
         9           Bi  tau(   9) = (  -0.0000005   0.5773506   0.4267941  )
        10           Bi  tau(  10) = (   0.0000000   0.0000000   0.0172186  )
        11           Bi  tau(  11) = (   0.0000000   0.0000000   1.2465036  )
        12           Bi  tau(  12) = (   0.5000005   0.2886748   0.8369763  )
        13           O   tau(  13) = (  -0.3005870   0.6647756   2.1624421  )
        14           O   tau(  14) = (   0.0745814   0.2733208   2.1624421  )
        15           O   tau(  15) = (   0.2260070   0.7939536   2.1624421  )
        16           O   tau(  16) = (   0.4254330   0.5619882   1.7527437  )
        17           O   tau(  17) = (   0.3005869   0.0874426   1.7527437  )
        18           O   tau(  18) = (   0.7739786   0.2165955   1.7527437  )
        19           O   tau(  19) = (   0.6994059   0.0874362   0.5234995  )
        20           O   tau(  20) = (   0.5745746   0.5619860   0.5234995  )
        21           O   tau(  21) = (   0.2260180   0.2166040   0.5234995  )
        22           O   tau(  22) = (  -0.0745661   0.8507653   0.1135732  )
        23           O   tau(  23) = (  -0.1995013   0.3760667   0.1135732  )
        24           O   tau(  24) = (   0.2740674   0.5052189   0.1135732  )
        25           O   tau(  25) = (   0.1994921   0.3760730   1.3428354  )
        26           O   tau(  26) = (   0.0745652   0.8507542   1.3428354  )
        27           O   tau(  27) = (  -0.2740573   0.5052237   1.3428354  )
        28           O   tau(  28) = (  -0.0745884   0.2733113   0.9331975  )
        29           O   tau(  29) = (   0.3006002   0.6647734   0.9331975  )
        30           O   tau(  30) = (  -0.2260103   0.7939652   0.9331975  )

   Crystallographic axes

     site n.     atom                  positions (cryst. coord.)
         1           Fe2 tau(   1) = (  0.0000000  0.0000000  0.7772496  )
         2           Fe1 tau(   2) = (  0.3333330  0.6666670  0.9438955  )
         3           Fe1 tau(   3) = (  0.6666670  0.3333330  0.6106148  )
         4           Fe2 tau(   4) = (  0.6666670  0.3333330  0.1106303  )
         5           Fe1 tau(   5) = (  0.0000000  0.0000000  0.2772683  )
         6           Fe2 tau(   6) = (  0.3333330  0.6666670  0.4438933  )
         7           Bi  tau(   7) = (  0.6666670  0.3333330  0.8404340  )
         8           Bi  tau(   8) = (  0.3333330  0.6666670  0.6735999  )
         9           Bi  tau(   9) = (  0.3333330  0.6666670  0.1735971  )
        10           Bi  tau(  10) = (  0.0000000  0.0000000  0.0070036  )
        11           Bi  tau(  11) = (  0.0000000  0.0000000  0.5070111  )
        12           Bi  tau(  12) = (  0.6666670  0.3333330  0.3404373  )
        13           O   tau(  13) = (  0.0832214  0.7676167  0.8795660  )
        14           O   tau(  14) = (  0.2323833  0.3156037  0.8795660  )
        15           O   tau(  15) = (  0.6843963  0.9167786  0.8795660  )
        16           O   tau(  16) = (  0.7498970  0.6489281  0.7129226  )
        17           O   tau(  17) = (  0.3510719  0.1009700  0.7129226  )
        18           O   tau(  18) = (  0.8990300  0.2501030  0.7129226  )
        19           O   tau(  19) = (  0.7498872  0.1009626  0.2129316  )
        20           O   tau(  20) = (  0.8990374  0.6489256  0.2129316  )
        21           O   tau(  21) = (  0.3510744  0.2501128  0.2129316  )
        22           O   tau(  22) = (  0.4166235  0.9823791  0.0461955  )
        23           O   tau(  23) = (  0.0176209  0.4342444  0.0461955  )
        24           O   tau(  24) = (  0.5657556  0.5833765  0.0461955  )
        25           O   tau(  25) = (  0.4166179  0.4342517  0.5461938  )
        26           O   tau(  26) = (  0.5657483  0.9823663  0.5461938  )
        27           O   tau(  27) = (  0.0176337  0.5833821  0.5461938  )
        28           O   tau(  28) = (  0.0832080  0.3155927  0.3795749  )
        29           O   tau(  29) = (  0.6844073  0.7676142  0.3795749  )
        30           O   tau(  30) = (  0.2323858  0.9167920  0.3795749  )

     number of k points=     6  Methfessel-Paxton smearing, width (Ry)=  0.0100
                       cart. coord. in units 2pi/alat
        k(    1) = (   0.0000000   0.0000000   0.0000000), wk =   0.0555556
        k(    2) = (   0.0000000   0.0000000  -0.2033733), wk =   0.0555556
        k(    3) = (   0.0000000   0.3849002   0.0000000), wk =   0.3333333
        k(    4) = (   0.0000000   0.3849002  -0.2033733), wk =   0.3333333
        k(    5) = (   0.3333333   0.5773503   0.0000000), wk =   0.1111111
        k(    6) = (   0.3333333   0.5773503  -0.2033733), wk =   0.1111111

                       cryst. coord.
        k(    1) = (   0.0000000   0.0000000   0.0000000), wk =   0.0555556
        k(    2) = (   0.0000000   0.0000000  -0.5000000), wk =   0.0555556
        k(    3) = (   0.0000000   0.3333333   0.0000000), wk =   0.3333333
        k(    4) = (   0.0000000   0.3333333  -0.5000000), wk =   0.3333333
        k(    5) = (   0.3333333   0.3333333   0.0000000), wk =   0.1111111
        k(    6) = (   0.3333333   0.3333333  -0.5000000), wk =   0.1111111

     Dense  grid:   234021 G-vectors     FFT dimensions: (  60,  60, 150)

     Smooth grid:    82543 G-vectors     FFT dimensions: (  45,  45, 108)

     Dynamical RAM for                 wfc:       4.62 MB

     Dynamical RAM for     wfc (w. buffer):      60.12 MB

     Dynamical RAM for             U proj.:       0.79 MB

     Dynamical RAM for  U proj. (w. buff.):      10.25 MB

     Dynamical RAM for           str. fact:       2.38 MB

     Dynamical RAM for           local pot:       0.00 MB

     Dynamical RAM for          nlocal pot:      11.82 MB

     Dynamical RAM for                qrad:       5.74 MB

     Dynamical RAM for          rho,v,vnew:       7.69 MB

     Dynamical RAM for               rhoin:       2.56 MB

     Dynamical RAM for            rho*nmix:      19.05 MB

     Dynamical RAM for           G-vectors:       2.34 MB

     Dynamical RAM for          h,s,v(r/c):       0.35 MB

     Dynamical RAM for          <psi|beta>:       1.21 MB

     Dynamical RAM for      wfcinit/wfcrot:      11.67 MB

     Dynamical RAM for           addusdens:     122.01 MB

     Estimated static dynamical RAM per process >     129.05 MB

     Estimated max dynamical RAM per process >     251.06 MB

     Estimated total dynamical RAM >       1.47 GB

     Check: negative core charge=   -0.000014
     Generating pointlists ...
     new r_m :   0.1447 (alat units)  1.5098 (a.u.) for type    1
     new r_m :   0.1742 (alat units)  1.8183 (a.u.) for type    2
     new r_m :   0.1447 (alat units)  1.5098 (a.u.) for type    3
     new r_m :   0.1447 (alat units)  1.5098 (a.u.) for type    4

     Initial potential from superposition of free atoms

     starting charge  281.99969, renormalised to  294.00000

     negative rho (up, down):  1.282E-01 1.282E-01
 --- in v_hubbard ---
Hubbard energy    0.7232
 -------
     Number of +U iterations with fixed ns =  0
     Starting occupations:
 --- enter write_ns ---
 LDA+U parameters:
U( 3)     =  4.10000000
U( 4)     =  4.10000000
atom    1   Tr[ns(na)] (up, down, total) =   5.00000  1.00000  6.00000
   spin  1
    eigenvalues: 
  1.000  1.000  1.000  1.000  1.000
    eigenvectors:
  1.000  0.000  0.000  0.000  0.000
  0.000  1.000  0.000  0.000  0.000
  0.000  0.000  1.000  0.000  0.000
  0.000  0.000  0.000  1.000  0.000
  0.000  0.000  0.000  0.000  1.000
    occupations:
  1.000  0.000  0.000  0.000  0.000
  0.000  1.000  0.000  0.000  0.000
  0.000  0.000  1.000  0.000  0.000
  0.000  0.000  0.000  1.000  0.000
  0.000  0.000  0.000  0.000  1.000
   spin  2
    eigenvalues: 
  0.200  0.200  0.200  0.200  0.200
    eigenvectors:
  1.000  0.000  0.000  0.000  0.000
  0.000  1.000  0.000  0.000  0.000
  0.000  0.000  1.000  0.000  0.000
  0.000  0.000  0.000  1.000  0.000
  0.000  0.000  0.000  0.000  1.000
    occupations:
  0.200  0.000  0.000  0.000  0.000
  0.000  0.200  0.000  0.000  0.000
  0.000  0.000  0.200  0.000  0.000
  0.000  0.000  0.000  0.200  0.000
  0.000  0.000  0.000  0.000  0.200
atomic mag. moment =   4.00000
atom    2   Tr[ns(na)] (up, down, total) =   1.00000  5.00000  6.00000
   spin  1
    eigenvalues: 
  0.200  0.200  0.200  0.200  0.200
    eigenvectors:
  1.000  0.000  0.000  0.000  0.000
  0.000  1.000  0.000  0.000  0.000
  0.000  0.000  1.000  0.000  0.000
  0.000  0.000  0.000  1.000  0.000
  0.000  0.000  0.000  0.000  1.000
    occupations:
  0.200  0.000  0.000  0.000  0.000
  0.000  0.200  0.000  0.000  0.000
  0.000  0.000  0.200  0.000  0.000
  0.000  0.000  0.000  0.200  0.000
  0.000  0.000  0.000  0.000  0.200
   spin  2
    eigenvalues: 
  1.000  1.000  1.000  1.000  1.000
    eigenvectors:
  1.000  0.000  0.000  0.000  0.000
  0.000  1.000  0.000  0.000  0.000
  0.000  0.000  1.000  0.000  0.000
  0.000  0.000  0.000  1.000  0.000
  0.000  0.000  0.000  0.000  1.000
    occupations:
  1.000  0.000  0.000  0.000  0.000
  0.000  1.000  0.000  0.000  0.000
  0.000  0.000  1.000  0.000  0.000
  0.000  0.000  0.000  1.000  0.000
  0.000  0.000  0.000  0.000  1.000
atomic mag. moment =  -4.00000
atom    3   Tr[ns(na)] (up, down, total) =   1.00000  5.00000  6.00000
   spin  1
    eigenvalues: 
  0.200  0.200  0.200  0.200  0.200
    eigenvectors:
  1.000  0.000  0.000  0.000  0.000
  0.000  1.000  0.000  0.000  0.000
  0.000  0.000  1.000  0.000  0.000
  0.000  0.000  0.000  1.000  0.000
  0.000  0.000  0.000  0.000  1.000
    occupations:
  0.200  0.000  0.000  0.000  0.000
  0.000  0.200  0.000  0.000  0.000
  0.000  0.000  0.200  0.000  0.000
  0.000  0.000  0.000  0.200  0.000
  0.000  0.000  0.000  0.000  0.200
   spin  2
    eigenvalues: 
  1.000  1.000  1.000  1.000  1.000
    eigenvectors:
  1.000  0.000  0.000  0.000  0.000
  0.000  1.000  0.000  0.000  0.000
  0.000  0.000  1.000  0.000  0.000
  0.000  0.000  0.000  1.000  0.000
  0.000  0.000  0.000  0.000  1.000
    occupations:
  1.000  0.000  0.000  0.000  0.000
  0.000  1.000  0.000  0.000  0.000
  0.000  0.000  1.000  0.000  0.000
  0.000  0.000  0.000  1.000  0.000
  0.000  0.000  0.000  0.000  1.000
atomic mag. moment =  -4.00000
atom    4   Tr[ns(na)] (up, down, total) =   5.00000  1.00000  6.00000
   spin  1
    eigenvalues: 
  1.000  1.000  1.000  1.000  1.000
    eigenvectors:
  1.000  0.000  0.000  0.000  0.000
  0.000  1.000  0.000  0.000  0.000
  0.000  0.000  1.000  0.000  0.000
  0.000  0.000  0.000  1.000  0.000
  0.000  0.000  0.000  0.000  1.000
    occupations:
  1.000  0.000  0.000  0.000  0.000
  0.000  1.000  0.000  0.000  0.000
  0.000  0.000  1.000  0.000  0.000
  0.000  0.000  0.000  1.000  0.000
  0.000  0.000  0.000  0.000  1.000
   spin  2
    eigenvalues: 
  0.200  0.200  0.200  0.200  0.200
    eigenvectors:
  1.000  0.000  0.000  0.000  0.000
  0.000  1.000  0.000  0.000  0.000
  0.000  0.000  1.000  0.000  0.000
  0.000  0.000  0.000  1.000  0.000
  0.000  0.000  0.000  0.000  1.000
    occupations:
  0.200  0.000  0.000  0.000  0.000
  0.000  0.200  0.000  0.000  0.000
  0.000  0.000  0.200  0.000  0.000
  0.000  0.000  0.000  0.200  0.000
  0.000  0.000  0.000  0.000  0.200
atomic mag. moment =   4.00000
atom    5   Tr[ns(na)] (up, down, total) =   1.00000  5.00000  6.00000
   spin  1
    eigenvalues: 
  0.200  0.200  0.200  0.200  0.200
    eigenvectors:
  1.000  0.000  0.000  0.000  0.000
  0.000  1.000  0.000  0.000  0.000
  0.000  0.000  1.000  0.000  0.000
  0.000  0.000  0.000  1.000  0.000
  0.000  0.000  0.000  0.000  1.000
    occupations:
  0.200  0.000  0.000  0.000  0.000
  0.000  0.200  0.000  0.000  0.000
  0.000  0.000  0.200  0.000  0.000
  0.000  0.000  0.000  0.200  0.000
  0.000  0.000  0.000  0.000  0.200
   spin  2
    eigenvalues: 
  1.000  1.000  1.000  1.000  1.000
    eigenvectors:
  1.000  0.000  0.000  0.000  0.000
  0.000  1.000  0.000  0.000  0.000
  0.000  0.000  1.000  0.000  0.000
  0.000  0.000  0.000  1.000  0.000
  0.000  0.000  0.000  0.000  1.000
    occupations:
  1.000  0.000  0.000  0.000  0.000
  0.000  1.000  0.000  0.000  0.000
  0.000  0.000  1.000  0.000  0.000
  0.000  0.000  0.000  1.000  0.000
  0.000  0.000  0.000  0.000  1.000
atomic mag. moment =  -4.00000
atom    6   Tr[ns(na)] (up, down, total) =   5.00000  1.00000  6.00000
   spin  1
    eigenvalues: 
  1.000  1.000  1.000  1.000  1.000
    eigenvectors:
  1.000  0.000  0.000  0.000  0.000
  0.000  1.000  0.000  0.000  0.000
  0.000  0.000  1.000  0.000  0.000
  0.000  0.000  0.000  1.000  0.000
  0.000  0.000  0.000  0.000  1.000
    occupations:
  1.000  0.000  0.000  0.000  0.000
  0.000  1.000  0.000  0.000  0.000
  0.000  0.000  1.000  0.000  0.000
  0.000  0.000  0.000  1.000  0.000
  0.000  0.000  0.000  0.000  1.000
   spin  2
    eigenvalues: 
  0.200  0.200  0.200  0.200  0.200
    eigenvectors:
  1.000  0.000  0.000  0.000  0.000
  0.000  1.000  0.000  0.000  0.000
  0.000  0.000  1.000  0.000  0.000
  0.000  0.000  0.000  1.000  0.000
  0.000  0.000  0.000  0.000  1.000
    occupations:
  0.200  0.000  0.000  0.000  0.000
  0.000  0.200  0.000  0.000  0.000
  0.000  0.000  0.200  0.000  0.000
  0.000  0.000  0.000  0.200  0.000
  0.000  0.000  0.000  0.000  0.200
atomic mag. moment =   4.00000
N of occupied +U levels =   36.000000
 --- exit write_ns ---
 Atomic wfc used for LDA+U Projector are NOT orthogonalized
     Starting wfcs are  204 randomized atomic wfcs

     total cpu time spent up to now is       73.8 secs

     Self-consistent Calculation

     iteration #  1     ecut=    40.00 Ry     beta= 0.40
     CG style diagonalization
     ethr =  1.00E-02,  avg # of iterations =  2.4
 --- enter write_ns ---
 LDA+U parameters:
U( 3)     =  4.10000000
U( 4)     =  4.10000000
atom    1   Tr[ns(na)] (up, down, total) =   4.97655  0.23994  5.21649
   spin  1
    eigenvalues: 
  0.993  0.994  0.994  0.997  0.997
    eigenvectors:
  1.000  0.000  0.000  0.000  0.000
  0.000  0.012  0.258  0.003  0.727
  0.000  0.258  0.012  0.727  0.003
  0.000  0.135  0.595  0.119  0.151
  0.000  0.595  0.135  0.151  0.119
    occupations:
  0.993 -0.000 -0.000 -0.000 -0.000
 -0.000  0.996 -0.000  0.001  0.001
 -0.000 -0.000  0.996  0.001 -0.001
 -0.000  0.001  0.001  0.995  0.000
 -0.000  0.001 -0.001  0.000  0.995
   spin  2
    eigenvalues: 
  0.025  0.025  0.026  0.082  0.082
    eigenvectors:
  0.000  0.000  1.000  0.000  0.000
  0.044  0.361  0.000  0.006  0.588
  0.361  0.044  0.000  0.588  0.006
  0.132  0.463  0.000  0.178  0.227
  0.463  0.132  0.000  0.227  0.178
    occupations:
  0.026 -0.000 -0.000 -0.000 -0.000
 -0.000  0.059 -0.000  0.019  0.020
 -0.000 -0.000  0.059  0.020 -0.019
 -0.000  0.019  0.020  0.048  0.000
 -0.000  0.020 -0.019  0.000  0.048
atomic mag. moment =   4.73660
atom    2   Tr[ns(na)] (up, down, total) =   0.23979  4.97659  5.21638
   spin  1
    eigenvalues: 
  0.025  0.025  0.026  0.081  0.081
    eigenvectors:
  0.000  0.000  1.000  0.000  0.000
  0.314  0.092  0.000  0.453  0.141
  0.092  0.314  0.000  0.141  0.453
  0.036  0.559  0.000  0.022  0.384
  0.559  0.036  0.000  0.384  0.022
    occupations:
  0.026 -0.000 -0.000 -0.000 -0.000
 -0.000  0.059 -0.000 -0.019  0.020
 -0.000 -0.000  0.059  0.020  0.019
 -0.000 -0.019  0.020  0.048  0.000
 -0.000  0.020  0.019  0.000  0.048
   spin  2
    eigenvalues: 
  0.994  0.994  0.994  0.997  0.997
    eigenvectors:
  1.000  0.000  0.000  0.000  0.000
  0.000  0.189  0.082  0.249  0.480
  0.000  0.082  0.189  0.480  0.249
  0.000  0.073  0.656  0.000  0.270
  0.000  0.656  0.073  0.270  0.000
    occupations:
  0.994 -0.000 -0.000 -0.000 -0.000
 -0.000  0.996 -0.000 -0.001  0.001
 -0.000 -0.000  0.996  0.001  0.001
 -0.000 -0.001  0.001  0.995  0.000
 -0.000  0.001  0.001  0.000  0.995
atomic mag. moment =  -4.73679
atom    3   Tr[ns(na)] (up, down, total) =   0.23986  4.97649  5.21636
   spin  1
    eigenvalues: 
  0.025  0.025  0.026  0.082  0.082
    eigenvectors:
  0.000  0.000  1.000  0.000  0.000
  0.312  0.091  0.000  0.452  0.144
  0.091  0.312  0.000  0.144  0.452
  0.036  0.561  0.000  0.021  0.383
  0.561  0.036  0.000  0.383  0.021
    occupations:
  0.026 -0.000 -0.000 -0.000 -0.000
 -0.000  0.059 -0.000 -0.019  0.020
 -0.000 -0.000  0.059  0.020  0.019
 -0.000 -0.019  0.020  0.048  0.000
 -0.000  0.020  0.019  0.000  0.048
   spin  2
    eigenvalues: 
  0.994  0.994  0.994  0.997  0.997
    eigenvectors:
  1.000  0.000  0.000  0.000  0.000
  0.000  0.188  0.086  0.250  0.475
  0.000  0.086  0.188  0.475  0.250
  0.000  0.072  0.653  0.000  0.275
  0.000  0.653  0.072  0.275  0.000
    occupations:
  0.994 -0.000 -0.000 -0.000 -0.000
 -0.000  0.996 -0.000 -0.001  0.001
 -0.000 -0.000  0.996  0.001  0.001
 -0.000 -0.001  0.001  0.995  0.000
 -0.000  0.001  0.001  0.000  0.995
atomic mag. moment =  -4.73663
atom    4   Tr[ns(na)] (up, down, total) =   4.97665  0.23989  5.21654
   spin  1
    eigenvalues: 
  0.994  0.994  0.994  0.997  0.997
    eigenvectors:
  1.000  0.000  0.000  0.000  0.000
  0.000  0.012  0.261  0.003  0.724
  0.000  0.261  0.012  0.724  0.003
  0.000  0.135  0.593  0.119  0.154
  0.000  0.593  0.135  0.154  0.119
    occupations:
  0.994 -0.000 -0.000 -0.000 -0.000
 -0.000  0.996 -0.000  0.001  0.001
 -0.000 -0.000  0.996  0.001 -0.001
 -0.000  0.001  0.001  0.995  0.000
 -0.000  0.001 -0.001  0.000  0.995
   spin  2
    eigenvalues: 
  0.025  0.025  0.026  0.081  0.081
    eigenvectors:
  0.000  0.000  1.000  0.000  0.000
  0.044  0.360  0.000  0.006  0.590
  0.360  0.044  0.000  0.590  0.006
  0.131  0.465  0.000  0.178  0.226
  0.465  0.131  0.000  0.226  0.178
    occupations:
  0.026 -0.000 -0.000 -0.000 -0.000
 -0.000  0.059 -0.000  0.019  0.020
 -0.000 -0.000  0.059  0.020 -0.019
 -0.000  0.019  0.020  0.048  0.000
 -0.000  0.020 -0.019  0.000  0.048
atomic mag. moment =   4.73677
atom    5   Tr[ns(na)] (up, down, total) =   0.23981  4.97647  5.21628
   spin  1
    eigenvalues: 
  0.025  0.025  0.026  0.081  0.081
    eigenvectors:
  0.000  0.000  1.000  0.000  0.000
  0.312  0.092  0.000  0.451  0.145
  0.092  0.312  0.000  0.145  0.451
  0.036  0.560  0.000  0.021  0.383
  0.560  0.036  0.000  0.383  0.021
    occupations:
  0.026 -0.000 -0.000 -0.000 -0.000
 -0.000  0.059 -0.000 -0.019  0.020
 -0.000 -0.000  0.059  0.020  0.019
 -0.000 -0.019  0.020  0.048  0.000
 -0.000  0.020  0.019  0.000  0.048
   spin  2
    eigenvalues: 
  0.993  0.994  0.994  0.997  0.997
    eigenvectors:
  1.000  0.000  0.000  0.000  0.000
  0.000  0.191  0.085  0.255  0.468
  0.000  0.085  0.191  0.468  0.255
  0.000  0.072  0.652  0.000  0.277
  0.000  0.652  0.072  0.277  0.000
    occupations:
  0.993 -0.000 -0.000 -0.000 -0.000
 -0.000  0.996 -0.000 -0.001  0.001
 -0.000 -0.000  0.996  0.001  0.001
 -0.000 -0.001  0.001  0.995  0.000
 -0.000  0.001  0.001  0.000  0.995
atomic mag. moment =  -4.73666
atom    6   Tr[ns(na)] (up, down, total) =   4.97670  0.23984  5.21654
   spin  1
    eigenvalues: 
  0.994  0.994  0.994  0.997  0.997
    eigenvectors:
  1.000  0.000  0.000  0.000  0.000
  0.000  0.011  0.260  0.004  0.725
  0.000  0.260  0.011  0.725  0.004
  0.000  0.135  0.595  0.118  0.153
  0.000  0.595  0.135  0.153  0.118
    occupations:
  0.994 -0.000 -0.000 -0.000 -0.000
 -0.000  0.996 -0.000  0.001  0.001
 -0.000 -0.000  0.996  0.001 -0.001
 -0.000  0.001  0.001  0.995  0.000
 -0.000  0.001 -0.001  0.000  0.995
   spin  2
    eigenvalues: 
  0.025  0.025  0.026  0.081  0.081
    eigenvectors:
  0.000  0.000  1.000  0.000  0.000
  0.044  0.361  0.000  0.006  0.589
  0.361  0.044  0.000  0.589  0.006
  0.131  0.464  0.000  0.178  0.227
  0.464  0.131  0.000  0.227  0.178
    occupations:
  0.026 -0.000 -0.000 -0.000 -0.000
 -0.000  0.059 -0.000  0.019  0.020
 -0.000 -0.000  0.059  0.020 -0.019
 -0.000  0.019  0.020  0.048  0.000
 -0.000  0.020 -0.019  0.000  0.048
atomic mag. moment =   4.73686
N of occupied +U levels =   31.298589
 --- exit write_ns ---

     negative rho (up, down):  1.200E-01 1.200E-01
 --- in v_hubbard ---
Hubbard energy    0.2241
 -------

     total cpu time spent up to now is      253.6 secs

     total energy              =   -3188.07173890 Ry
     estimated scf accuracy    <      22.63817418 Ry

     total magnetization       =    -0.00 Bohr mag/cell
     absolute magnetization    =    30.45 Bohr mag/cell

     iteration #  2     ecut=    40.00 Ry     beta= 0.40
     CG style diagonalization
     ethr =  7.70E-03,  avg # of iterations =  3.5
 --- enter write_ns ---
 LDA+U parameters:
U( 3)     =  4.10000000
U( 4)     =  4.10000000
atom    1   Tr[ns(na)] (up, down, total) =   5.00063  0.56726  5.56789
   spin  1
    eigenvalues: 
  0.999  0.999  1.001  1.001  1.001
    eigenvectors:
  0.000  0.000  1.000  0.000  0.000
  0.011  0.540  0.000  0.053  0.396
  0.540  0.011  0.000  0.396  0.053
  0.190  0.259  0.000  0.125  0.426
  0.259  0.190  0.000  0.426  0.125
    occupations:
  1.001 -0.000 -0.000 -0.000 -0.000
 -0.000  1.000 -0.000 -0.000 -0.001
 -0.000 -0.000  1.000 -0.001  0.000
 -0.000 -0.000 -0.001  1.000  0.000
 -0.000 -0.001  0.000  0.000  1.000
   spin  2
    eigenvalues: 
  0.079  0.079  0.080  0.165  0.165
    eigenvectors:
  0.000  0.000  1.000  0.000  0.000
  0.046  0.375  0.000  0.008  0.571
  0.375  0.046  0.000  0.571  0.008
  0.138  0.441  0.000  0.185  0.236
  0.441  0.138  0.000  0.236  0.185
    occupations:
  0.080 -0.000 -0.000 -0.000 -0.000
 -0.000  0.129 -0.000  0.028  0.032
 -0.000 -0.000  0.129  0.032 -0.028
 -0.000  0.028  0.032  0.115  0.000
 -0.000  0.032 -0.028  0.000  0.115
atomic mag. moment =   4.43337
atom    2   Tr[ns(na)] (up, down, total) =   0.56702  5.00065  5.56767
   spin  1
    eigenvalues: 
  0.078  0.078  0.080  0.166  0.166
    eigenvectors:
  0.000  0.000  1.000  0.000  0.000
  0.326  0.094  0.000  0.460  0.121
  0.094  0.326  0.000  0.121  0.460
  0.034  0.547  0.000  0.028  0.391
  0.547  0.034  0.000  0.391  0.028
    occupations:
  0.080 -0.000 -0.000 -0.000 -0.000
 -0.000  0.129 -0.000 -0.029  0.032
 -0.000 -0.000  0.129  0.032  0.029
 -0.000 -0.029  0.032  0.115  0.000
 -0.000  0.032  0.029  0.000  0.115
   spin  2
    eigenvalues: 
  0.999  0.999  1.001  1.001  1.001
    eigenvectors:
  0.000  0.000  1.000  0.000  0.000
  0.462  0.087  0.000  0.341  0.110
  0.087  0.462  0.000  0.110  0.341
  0.043  0.408  0.000  0.023  0.526
  0.408  0.043  0.000  0.526  0.023
    occupations:
  1.001 -0.000 -0.000 -0.000 -0.000
 -0.000  1.000 -0.000  0.000 -0.001
 -0.000 -0.000  1.000 -0.001 -0.000
 -0.000  0.000 -0.001  1.000  0.000
 -0.000 -0.001 -0.000  0.000  1.000
atomic mag. moment =  -4.43362
atom    3   Tr[ns(na)] (up, down, total) =   0.57036  5.00064  5.57100
   spin  1
    eigenvalues: 
  0.079  0.080  0.080  0.166  0.166
    eigenvectors:
  1.000  0.000  0.000  0.000  0.000
  0.000  0.322  0.095  0.461  0.122
  0.000  0.095  0.322  0.122  0.461
  0.000  0.032  0.551  0.028  0.389
  0.000  0.551  0.032  0.389  0.028
    occupations:
  0.079 -0.000 -0.000 -0.000 -0.000
 -0.000  0.130 -0.000 -0.029  0.032
 -0.000 -0.000  0.130  0.032  0.029
 -0.000 -0.029  0.032  0.116  0.000
 -0.000  0.032  0.029  0.000  0.116
   spin  2
    eigenvalues: 
  0.999  0.999  1.001  1.001  1.001
    eigenvectors:
  0.000  0.000  1.000  0.000  0.000
  0.464  0.087  0.000  0.341  0.108
  0.087  0.464  0.000  0.108  0.341
  0.042  0.407  0.000  0.023  0.527
  0.407  0.042  0.000  0.527  0.023
    occupations:
  1.001 -0.000 -0.000 -0.000 -0.000
 -0.000  1.000 -0.000  0.000 -0.001
 -0.000 -0.000  1.000 -0.001 -0.000
 -0.000  0.000 -0.001  1.000  0.000
 -0.000 -0.001 -0.000  0.000  1.000
atomic mag. moment =  -4.43027
atom    4   Tr[ns(na)] (up, down, total) =   5.00063  0.56825  5.56888
   spin  1
    eigenvalues: 
  0.999  0.999  1.001  1.001  1.001
    eigenvectors:
  0.000  0.000  1.000  0.000  0.000
  0.011  0.542  0.000  0.053  0.395
  0.542  0.011  0.000  0.395  0.053
  0.189  0.258  0.000  0.125  0.427
  0.258  0.189  0.000  0.427  0.125
    occupations:
  1.001 -0.000 -0.000 -0.000 -0.000
 -0.000  1.000 -0.000 -0.000 -0.001
 -0.000 -0.000  1.000 -0.001  0.000
 -0.000 -0.000 -0.001  1.000  0.000
 -0.000 -0.001  0.000  0.000  1.000
   spin  2
    eigenvalues: 
  0.079  0.079  0.079  0.165  0.165
    eigenvectors:
  1.000  0.000  0.000  0.000  0.000
  0.000  0.041  0.377  0.007  0.575
  0.000  0.377  0.041  0.575  0.007
  0.000  0.143  0.439  0.183  0.235
  0.000  0.439  0.143  0.235  0.183
    occupations:
  0.079 -0.000 -0.000 -0.000 -0.000
 -0.000  0.129 -0.000  0.028  0.031
 -0.000 -0.000  0.129  0.031 -0.028
 -0.000  0.028  0.031  0.115  0.000
 -0.000  0.031 -0.028  0.000  0.115
atomic mag. moment =   4.43238
atom    5   Tr[ns(na)] (up, down, total) =   0.56841  5.00063  5.56904
   spin  1
    eigenvalues: 
  0.078  0.078  0.080  0.166  0.166
    eigenvectors:
  0.000  0.000  1.000  0.000  0.000
  0.334  0.090  0.000  0.462  0.114
  0.090  0.334  0.000  0.114  0.462
  0.037  0.539  0.000  0.031  0.393
  0.539  0.037  0.000  0.393  0.031
    occupations:
  0.080 -0.000 -0.000 -0.000 -0.000
 -0.000  0.129 -0.000 -0.029  0.032
 -0.000 -0.000  0.129  0.032  0.029
 -0.000 -0.029  0.032  0.115  0.000
 -0.000  0.032  0.029  0.000  0.115
   spin  2
    eigenvalues: 
  0.999  0.999  1.001  1.001  1.001
    eigenvectors:
  0.000  0.000  1.000  0.000  0.000
  0.463  0.087  0.000  0.341  0.109
  0.087  0.463  0.000  0.109  0.341
  0.043  0.408  0.000  0.023  0.526
  0.408  0.043  0.000  0.526  0.023
    occupations:
  1.001 -0.000 -0.000 -0.000 -0.000
 -0.000  1.000 -0.000  0.000 -0.001
 -0.000 -0.000  1.000 -0.001 -0.000
 -0.000  0.000 -0.001  1.000  0.000
 -0.000 -0.001 -0.000  0.000  1.000
atomic mag. moment =  -4.43221
atom    6   Tr[ns(na)] (up, down, total) =   5.00064  0.56721  5.56785
   spin  1
    eigenvalues: 
  0.999  0.999  1.001  1.001  1.001
    eigenvectors:
  0.000  0.000  1.000  0.000  0.000
  0.011  0.538  0.000  0.053  0.398
  0.538  0.011  0.000  0.398  0.053
  0.190  0.261  0.000  0.125  0.424
  0.261  0.190  0.000  0.424  0.125
    occupations:
  1.001 -0.000 -0.000 -0.000 -0.000
 -0.000  1.000 -0.000 -0.000 -0.001
 -0.000 -0.000  1.000 -0.001  0.000
 -0.000 -0.000 -0.001  1.000  0.000
 -0.000 -0.001  0.000  0.000  1.000
   spin  2
    eigenvalues: 
  0.078  0.078  0.080  0.165  0.165
    eigenvectors:
  0.000  0.000  1.000  0.000  0.000
  0.038  0.382  0.000  0.007  0.572
  0.382  0.038  0.000  0.572  0.007
  0.148  0.432  0.000  0.184  0.236
  0.432  0.148  0.000  0.236  0.184
    occupations:
  0.080 -0.000 -0.000 -0.000 -0.000
 -0.000  0.129 -0.000  0.029  0.032
 -0.000 -0.000  0.129  0.032 -0.029
 -0.000  0.029  0.032  0.115  0.000
 -0.000  0.032 -0.029  0.000  0.115
atomic mag. moment =   4.43343
N of occupied +U levels =   33.412334
 --- exit write_ns ---

     negative rho (up, down):  1.205E-01 1.205E-01
 --- in v_hubbard ---
Hubbard energy    0.3135
 -------

     total cpu time spent up to now is      503.7 secs

     total energy              =   -3192.41040959 Ry
     estimated scf accuracy    <       5.29240876 Ry

     total magnetization       =    -0.00 Bohr mag/cell
     absolute magnetization    =    29.36 Bohr mag/cell

     iteration #  3     ecut=    40.00 Ry     beta= 0.40
     CG style diagonalization
     ethr =  1.80E-03,  avg # of iterations =  3.4
 --- enter write_ns ---
 LDA+U parameters:
U( 3)     =  4.10000000
U( 4)     =  4.10000000
atom    1   Tr[ns(na)] (up, down, total) =   4.99953  0.61300  5.61253
   spin  1
    eigenvalues: 
  0.999  0.999  1.000  1.000  1.000
    eigenvectors:
  0.000  0.000  1.000  0.000  0.000
  0.021  0.493  0.000  0.072  0.414
  0.493  0.021  0.000  0.414  0.072
  0.204  0.282  0.000  0.125  0.389
  0.282  0.204  0.000  0.389  0.125
    occupations:
  1.000 -0.000 -0.000 -0.000 -0.000
 -0.000  1.000 -0.000 -0.000 -0.000
 -0.000 -0.000  1.000 -0.000  0.000
 -0.000 -0.000 -0.000  1.000  0.000
 -0.000 -0.000  0.000  0.000  1.000
   spin  2
    eigenvalues: 
  0.079  0.079  0.082  0.186  0.186
    eigenvectors:
  0.000  0.000  1.000  0.000  0.000
  0.032  0.378  0.000  0.005  0.585
  0.378  0.032  0.000  0.585  0.005
  0.146  0.444  0.000  0.176  0.234
  0.444  0.146  0.000  0.234  0.176
    occupations:
  0.082 -0.000 -0.000 -0.000 -0.000
 -0.000  0.142 -0.000  0.037  0.038
 -0.000 -0.000  0.142  0.038 -0.037
 -0.000  0.037  0.038  0.123  0.000
 -0.000  0.038 -0.037  0.000  0.123
atomic mag. moment =   4.38653
atom    2   Tr[ns(na)] (up, down, total) =   0.63056  4.99953  5.63009
   spin  1
    eigenvalues: 
  0.081  0.081  0.094  0.187  0.187
    eigenvectors:
  0.000  0.000  1.000  0.000  0.000
  0.313  0.096  0.000  0.432  0.158
  0.096  0.313  0.000  0.158  0.432
  0.042  0.549  0.000  0.021  0.388
  0.549  0.042  0.000  0.388  0.021
    occupations:
  0.094 -0.000 -0.000 -0.000 -0.000
 -0.000  0.144 -0.000 -0.037  0.038
 -0.000 -0.000  0.144  0.038  0.037
 -0.000 -0.037  0.038  0.124  0.000
 -0.000  0.038  0.037  0.000  0.124
   spin  2
    eigenvalues: 
  0.999  0.999  1.000  1.000  1.000
    eigenvectors:
  0.000  0.000  1.000  0.000  0.000
  0.475  0.038  0.000  0.380  0.108
  0.038  0.475  0.000  0.108  0.380
  0.069  0.419  0.000  0.015  0.497
  0.419  0.069  0.000  0.497  0.015
    occupations:
  1.000 -0.000 -0.000 -0.000 -0.000
 -0.000  1.000 -0.000  0.000 -0.000
 -0.000 -0.000  1.000 -0.000 -0.000
 -0.000  0.000 -0.000  1.000  0.000
 -0.000 -0.000 -0.000  0.000  1.000
atomic mag. moment =  -4.36896
atom    3   Tr[ns(na)] (up, down, total) =   0.63000  4.99949  5.62949
   spin  1
    eigenvalues: 
  0.080  0.080  0.095  0.187  0.187
    eigenvectors:
  0.000  0.000  1.000  0.000  0.000
  0.308  0.095  0.000  0.432  0.165
  0.095  0.308  0.000  0.165  0.432
  0.041  0.556  0.000  0.019  0.384
  0.556  0.041  0.000  0.384  0.019
    occupations:
  0.095 -0.000 -0.000 -0.000 -0.000
 -0.000  0.144 -0.000 -0.037  0.037
 -0.000 -0.000  0.144  0.037  0.037
 -0.000 -0.037  0.037  0.123  0.000
 -0.000  0.037  0.037  0.000  0.123
   spin  2
    eigenvalues: 
  0.999  0.999  1.000  1.000  1.000
    eigenvectors:
  0.000  0.000  1.000  0.000  0.000
  0.478  0.036  0.000  0.381  0.104
  0.036  0.478  0.000  0.104  0.381
  0.069  0.417  0.000  0.015  0.499
  0.417  0.069  0.000  0.499  0.015
    occupations:
  1.000 -0.000 -0.000 -0.000 -0.000
 -0.000  1.000 -0.000  0.000 -0.000
 -0.000 -0.000  1.000 -0.000 -0.000
 -0.000  0.000 -0.000  1.000  0.000
 -0.000 -0.000 -0.000  0.000  1.000
atomic mag. moment =  -4.36949
atom    4   Tr[ns(na)] (up, down, total) =   4.99954  0.61574  5.61528
   spin  1
    eigenvalues: 
  0.999  0.999  1.000  1.000  1.000
    eigenvectors:
  0.000  0.000  1.000  0.000  0.000
  0.021  0.497  0.000  0.072  0.410
  0.497  0.021  0.000  0.410  0.072
  0.203  0.279  0.000  0.124  0.394
  0.279  0.203  0.000  0.394  0.124
    occupations:
  1.000 -0.000 -0.000 -0.000 -0.000
 -0.000  1.000 -0.000 -0.000 -0.000
 -0.000 -0.000  1.000 -0.000  0.000
 -0.000 -0.000 -0.000  1.000  0.000
 -0.000 -0.000  0.000  0.000  1.000
   spin  2
    eigenvalues: 
  0.079  0.079  0.085  0.186  0.186
    eigenvectors:
  0.000  0.000  1.000  0.000  0.000
  0.028  0.379  0.000  0.004  0.590
  0.379  0.028  0.000  0.590  0.004
  0.152  0.442  0.000  0.174  0.232
  0.442  0.152  0.000  0.232  0.174
    occupations:
  0.085 -0.000 -0.000 -0.000 -0.000
 -0.000  0.143 -0.000  0.037  0.037
 -0.000 -0.000  0.143  0.037 -0.037
 -0.000  0.037  0.037  0.123  0.000
 -0.000  0.037 -0.037  0.000  0.123
atomic mag. moment =   4.38380
atom    5   Tr[ns(na)] (up, down, total) =   0.62792  4.99950  5.62742
   spin  1
    eigenvalues: 
  0.079  0.079  0.096  0.187  0.187
    eigenvectors:
  0.000  0.000  1.000  0.000  0.000
  0.319  0.094  0.000  0.435  0.151
  0.094  0.319  0.000  0.151  0.435
  0.043  0.544  0.000  0.023  0.390
  0.544  0.043  0.000  0.390  0.023
    occupations:
  0.096 -0.000 -0.000 -0.000 -0.000
 -0.000  0.142 -0.000 -0.037  0.038
 -0.000 -0.000  0.142  0.038  0.037
 -0.000 -0.037  0.038  0.124  0.000
 -0.000  0.038  0.037  0.000  0.124
   spin  2
    eigenvalues: 
  0.999  0.999  1.000  1.000  1.000
    eigenvectors:
  0.000  0.000  1.000  0.000  0.000
  0.474  0.036  0.000  0.382  0.107
  0.036  0.474  0.000  0.107  0.382
  0.070  0.420  0.000  0.015  0.496
  0.420  0.070  0.000  0.496  0.015
    occupations:
  1.000 -0.000 -0.000 -0.000 -0.000
 -0.000  1.000 -0.000  0.000 -0.000
 -0.000 -0.000  1.000 -0.000 -0.000
 -0.000  0.000 -0.000  1.000  0.000
 -0.000 -0.000 -0.000  0.000  1.000
atomic mag. moment =  -4.37158
atom    6   Tr[ns(na)] (up, down, total) =   4.99956  0.61364  5.61319
   spin  1
    eigenvalues: 
  0.999  0.999  1.000  1.000  1.000
    eigenvectors:
  0.000  0.000  1.000  0.000  0.000
  0.022  0.492  0.000  0.072  0.414
  0.492  0.022  0.000  0.414  0.072
  0.204  0.282  0.000  0.125  0.389
  0.282  0.204  0.000  0.389  0.125
    occupations:
  1.000 -0.000 -0.000 -0.000 -0.000
 -0.000  1.000 -0.000 -0.000 -0.000
 -0.000 -0.000  1.000 -0.000  0.000
 -0.000 -0.000 -0.000  1.000  0.000
 -0.000 -0.000  0.000  0.000  1.000
   spin  2
    eigenvalues: 
  0.077  0.077  0.086  0.187  0.187
    eigenvectors:
  0.000  0.000  1.000  0.000  0.000
  0.029  0.381  0.000  0.004  0.586
  0.381  0.029  0.000  0.586  0.004
  0.149  0.441  0.000  0.175  0.235
  0.441  0.149  0.000  0.235  0.175
    occupations:
  0.086 -0.000 -0.000 -0.000 -0.000
 -0.000  0.142 -0.000  0.038  0.039
 -0.000 -0.000  0.142  0.039 -0.038
 -0.000  0.038  0.039  0.122  0.000
 -0.000  0.039 -0.038  0.000  0.122
atomic mag. moment =   4.38592
N of occupied +U levels =   33.728002
 --- exit write_ns ---

     negative rho (up, down):  1.198E-01 1.197E-01
 --- in v_hubbard ---
Hubbard energy    0.4617
 -------

     total cpu time spent up to now is      743.7 secs

     total energy              =   -3193.95615915 Ry
     estimated scf accuracy    <       1.72486540 Ry

     total magnetization       =     0.07 Bohr mag/cell
     absolute magnetization    =    28.52 Bohr mag/cell

     iteration #  4     ecut=    40.00 Ry     beta= 0.40
     CG style diagonalization
     ethr =  5.87E-04,  avg # of iterations =  3.7
 --- enter write_ns ---
 LDA+U parameters:
U( 3)     =  4.10000000
U( 4)     =  4.10000000
atom    1   Tr[ns(na)] (up, down, total) =   4.99223  1.17297  6.16520
   spin  1
    eigenvalues: 
  0.997  0.997  0.999  1.000  1.000
    eigenvectors:
  0.000  0.000  1.000  0.000  0.000
  0.001  0.578  0.000  0.022  0.398
  0.578  0.001  0.000  0.398  0.022
  0.165  0.256  0.000  0.126  0.453
  0.256  0.165  0.000  0.453  0.126
    occupations:
  0.999 -0.000 -0.000 -0.000 -0.000
 -0.000  0.998 -0.000 -0.001 -0.001
 -0.000 -0.000  0.998 -0.001  0.001
 -0.000 -0.001 -0.001  0.998  0.000
 -0.000 -0.001  0.001  0.000  0.998
   spin  2
    eigenvalues: 
  0.174  0.174  0.176  0.325  0.325
    eigenvectors:
  0.000  0.000  1.000  0.000  0.000
  0.029  0.374  0.000  0.005  0.592
  0.374  0.029  0.000  0.592  0.005
  0.156  0.441  0.000  0.174  0.229
  0.441  0.156  0.000  0.229  0.174
    occupations:
  0.176 -0.000 -0.000 -0.000 -0.000
 -0.000  0.264 -0.000  0.051  0.053
 -0.000 -0.000  0.264  0.053 -0.051
 -0.000  0.051  0.053  0.235  0.000
 -0.000  0.053 -0.051  0.000  0.235
atomic mag. moment =   3.81925
atom    2   Tr[ns(na)] (up, down, total) =   1.11231  4.99005  6.10236
   spin  1
    eigenvalues: 
  0.158  0.158  0.167  0.314  0.314
    eigenvectors:
  0.000  0.000  1.000  0.000  0.000
  0.321  0.090  0.000  0.431  0.158
  0.090  0.321  0.000  0.158  0.431
  0.049  0.540  0.000  0.022  0.389
  0.540  0.049  0.000  0.389  0.022
    occupations:
  0.167 -0.000 -0.000 -0.000 -0.000
 -0.000  0.250 -0.000 -0.054  0.055
 -0.000 -0.000  0.250  0.055  0.054
 -0.000 -0.054  0.055  0.222  0.000
 -0.000  0.055  0.054  0.000  0.222
   spin  2
    eigenvalues: 
  0.996  0.996  0.999  1.000  1.000
    eigenvectors:
  0.000  0.000  1.000  0.000  0.000
  0.385  0.193  0.000  0.283  0.138
  0.193  0.385  0.000  0.138  0.283
  0.023  0.398  0.000  0.034  0.545
  0.398  0.023  0.000  0.545  0.034
    occupations:
  0.999 -0.000 -0.000 -0.000 -0.000
 -0.000  0.997 -0.000  0.001 -0.001
 -0.000 -0.000  0.997 -0.001 -0.001
 -0.000  0.001 -0.001  0.998  0.000
 -0.000 -0.001 -0.001  0.000  0.998
atomic mag. moment =  -3.87774
atom    3   Tr[ns(na)] (up, down, total) =   1.11926  4.98997  6.10923
   spin  1
    eigenvalues: 
  0.161  0.161  0.169  0.314  0.314
    eigenvectors:
  0.000  0.000  1.000  0.000  0.000
  0.317  0.081  0.000  0.438  0.164
  0.081  0.317  0.000  0.164  0.438
  0.050  0.552  0.000  0.017  0.380
  0.552  0.050  0.000  0.380  0.017
    occupations:
  0.169 -0.000 -0.000 -0.000 -0.000
 -0.000  0.253 -0.000 -0.052  0.054
 -0.000 -0.000  0.253  0.054  0.052
 -0.000 -0.052  0.054  0.222  0.000
 -0.000  0.054  0.052  0.000  0.222
   spin  2
    eigenvalues: 
  0.996  0.996  0.999  1.000  1.000
    eigenvectors:
  0.000  0.000  1.000  0.000  0.000
  0.390  0.193  0.000  0.285  0.132
  0.193  0.390  0.000  0.132  0.285
  0.022  0.395  0.000  0.034  0.549
  0.395  0.022  0.000  0.549  0.034
    occupations:
  0.999 -0.000 -0.000 -0.000 -0.000
 -0.000  0.997 -0.000  0.001 -0.001
 -0.000 -0.000  0.997 -0.001 -0.001
 -0.000  0.001 -0.001  0.998  0.000
 -0.000 -0.001 -0.001  0.000  0.998
atomic mag. moment =  -3.87072
atom    4   Tr[ns(na)] (up, down, total) =   4.99201  1.17198  6.16399
   spin  1
    eigenvalues: 
  0.997  0.997  0.999  1.000  1.000
    eigenvectors:
  0.000  0.000  1.000  0.000  0.000
  0.001  0.579  0.000  0.024  0.396
  0.579  0.001  0.000  0.396  0.024
  0.166  0.254  0.000  0.126  0.454
  0.254  0.166  0.000  0.454  0.126
    occupations:
  0.999 -0.000 -0.000 -0.000 -0.000
 -0.000  0.998 -0.000 -0.001 -0.001
 -0.000 -0.000  0.998 -0.001  0.001
 -0.000 -0.001 -0.001  0.998  0.000
 -0.000 -0.001  0.001  0.000  0.998
   spin  2
    eigenvalues: 
  0.173  0.173  0.177  0.325  0.325
    eigenvectors:
  0.000  0.000  1.000  0.000  0.000
  0.029  0.368  0.000  0.005  0.598
  0.368  0.029  0.000  0.598  0.005
  0.161  0.442  0.000  0.175  0.222
  0.442  0.161  0.000  0.222  0.175
    occupations:
  0.177 -0.000 -0.000 -0.000 -0.000
 -0.000  0.264 -0.000  0.051  0.054
 -0.000 -0.000  0.264  0.054 -0.051
 -0.000  0.051  0.054  0.233  0.000
 -0.000  0.054 -0.051  0.000  0.233
atomic mag. moment =   3.82003
atom    5   Tr[ns(na)] (up, down, total) =   1.12211  4.99009  6.11219
   spin  1
    eigenvalues: 
  0.162  0.162  0.170  0.314  0.314
    eigenvectors:
  0.000  0.000  1.000  0.000  0.000
  0.327  0.078  0.000  0.449  0.145
  0.078  0.327  0.000  0.145  0.449
  0.050  0.544  0.000  0.021  0.384
  0.544  0.050  0.000  0.384  0.021
    occupations:
  0.170 -0.000 -0.000 -0.000 -0.000
 -0.000  0.252 -0.000 -0.051  0.055
 -0.000 -0.000  0.252  0.055  0.051
 -0.000 -0.051  0.055  0.224  0.000
 -0.000  0.055  0.051  0.000  0.224
   spin  2
    eigenvalues: 
  0.996  0.996  0.999  1.000  1.000
    eigenvectors:
  0.000  0.000  1.000  0.000  0.000
  0.392  0.186  0.000  0.288  0.135
  0.186  0.392  0.000  0.135  0.288
  0.024  0.398  0.000  0.033  0.544
  0.398  0.024  0.000  0.544  0.033
    occupations:
  0.999 -0.000 -0.000 -0.000 -0.000
 -0.000  0.997 -0.000  0.001 -0.001
 -0.000 -0.000  0.997 -0.001 -0.001
 -0.000  0.001 -0.001  0.998  0.000
 -0.000 -0.001 -0.001  0.000  0.998
atomic mag. moment =  -3.86798
atom    6   Tr[ns(na)] (up, down, total) =   4.99222  1.17945  6.17167
   spin  1
    eigenvalues: 
  0.997  0.997  0.999  1.000  1.000
    eigenvectors:
  0.000  0.000  1.000  0.000  0.000
  0.001  0.575  0.000  0.021  0.403
  0.575  0.001  0.000  0.403  0.021
  0.165  0.259  0.000  0.125  0.450
  0.259  0.165  0.000  0.450  0.125
    occupations:
  0.999 -0.000 -0.000 -0.000 -0.000
 -0.000  0.998 -0.000 -0.001 -0.001
 -0.000 -0.000  0.998 -0.001  0.001
 -0.000 -0.001 -0.001  0.998  0.000
 -0.000 -0.001  0.001  0.000  0.998
   spin  2
    eigenvalues: 
  0.176  0.176  0.179  0.324  0.324
    eigenvectors:
  0.000  0.000  1.000  0.000  0.000
  0.030  0.376  0.000  0.006  0.588
  0.376  0.030  0.000  0.588  0.006
  0.161  0.433  0.000  0.177  0.228
  0.433  0.161  0.000  0.228  0.177
    occupations:
  0.179 -0.000 -0.000 -0.000 -0.000
 -0.000  0.264 -0.000  0.050  0.053
 -0.000 -0.000  0.264  0.053 -0.050
 -0.000  0.050  0.053  0.236  0.000
 -0.000  0.053 -0.050  0.000  0.236
atomic mag. moment =   3.81277
N of occupied +U levels =   36.824635
 --- exit write_ns ---

     negative rho (up, down):  1.197E-01 1.196E-01
 --- in v_hubbard ---
Hubbard energy    0.4273
 -------

     total cpu time spent up to now is     1013.0 secs

     total energy              =   -3194.36202124 Ry
     estimated scf accuracy    <       0.65753508 Ry

     total magnetization       =     0.00 Bohr mag/cell
     absolute magnetization    =    26.03 Bohr mag/cell

     iteration #  5     ecut=    40.00 Ry     beta= 0.40
     CG style diagonalization
     c_bands:  1 eigenvalues not converged
     ethr =  2.24E-04,  avg # of iterations =  3.3
 --- enter write_ns ---
 LDA+U parameters:
U( 3)     =  4.10000000
U( 4)     =  4.10000000
atom    1   Tr[ns(na)] (up, down, total) =   4.99241  1.45685  6.44926
   spin  1
    eigenvalues: 
  0.996  0.996  1.000  1.000  1.000
    eigenvectors:
  0.000  0.000  1.000  0.000  0.000
  0.002  0.581  0.000  0.026  0.391
  0.581  0.002  0.000  0.391  0.026
  0.167  0.250  0.000  0.126  0.456
  0.250  0.167  0.000  0.456  0.126
    occupations:
  1.000 -0.000 -0.000 -0.000 -0.000
 -0.000  0.998 -0.000 -0.001 -0.001
 -0.000 -0.000  0.998 -0.001  0.001
 -0.000 -0.001 -0.001  0.998  0.000
 -0.000 -0.001  0.001  0.000  0.998
   spin  2
    eigenvalues: 
  0.226  0.226  0.230  0.388  0.388
    eigenvectors:
  0.000  0.000  1.000  0.000  0.000
  0.038  0.348  0.000  0.008  0.606
  0.348  0.038  0.000  0.606  0.008
  0.166  0.447  0.000  0.182  0.205
  0.447  0.166  0.000  0.205  0.182
    occupations:
  0.230 -0.000 -0.000 -0.000 -0.000
 -0.000  0.325 -0.000  0.051  0.060
 -0.000 -0.000  0.325  0.060 -0.051
 -0.000  0.051  0.060  0.288  0.000
 -0.000  0.060 -0.051  0.000  0.288
atomic mag. moment =   3.53557
atom    2   Tr[ns(na)] (up, down, total) =   1.31442  4.98893  6.30335
   spin  1
    eigenvalues: 
  0.194  0.194  0.201  0.362  0.362
    eigenvectors:
  0.000  0.000  1.000  0.000  0.000
  0.338  0.063  0.000  0.477  0.123
  0.063  0.338  0.000  0.123  0.477
  0.053  0.546  0.000  0.023  0.378
  0.546  0.053  0.000  0.378  0.023
    occupations:
  0.201 -0.000 -0.000 -0.000 -0.000
 -0.000  0.295 -0.000 -0.054  0.062
 -0.000 -0.000  0.295  0.062  0.054
 -0.000 -0.054  0.062  0.262  0.000
 -0.000  0.062  0.054  0.000  0.262
   spin  2
    eigenvalues: 
  0.995  0.995  0.999  1.000  1.000
    eigenvectors:
  0.000  0.000  1.000  0.000  0.000
  0.405  0.183  0.000  0.290  0.122
  0.183  0.405  0.000  0.122  0.290
  0.021  0.391  0.000  0.034  0.553
  0.391  0.021  0.000  0.553  0.034
    occupations:
  0.999 -0.000 -0.000 -0.000 -0.000
 -0.000  0.997 -0.000  0.002 -0.002
 -0.000 -0.000  0.997 -0.002 -0.002
 -0.000  0.002 -0.002  0.998  0.000
 -0.000 -0.002 -0.002  0.000  0.998
atomic mag. moment =  -3.67452
atom    3   Tr[ns(na)] (up, down, total) =   1.32647  4.98920  6.31566
   spin  1
    eigenvalues: 
  0.197  0.197  0.204  0.364  0.364
    eigenvectors:
  0.000  0.000  1.000  0.000  0.000
  0.335  0.058  0.000  0.481  0.126
  0.058  0.335  0.000  0.126  0.481
  0.055  0.552  0.000  0.020  0.373
  0.552  0.055  0.000  0.373  0.020
    occupations:
  0.204 -0.000 -0.000 -0.000 -0.000
 -0.000  0.299 -0.000 -0.052  0.062
 -0.000 -0.000  0.299  0.062  0.052
 -0.000 -0.052  0.062  0.263  0.000
 -0.000  0.062  0.052  0.000  0.263
   spin  2
    eigenvalues: 
  0.995  0.995  0.999  1.000  1.000
    eigenvectors:
  0.000  0.000  1.000  0.000  0.000
  0.402  0.189  0.000  0.288  0.121
  0.189  0.402  0.000  0.121  0.288
  0.020  0.389  0.000  0.035  0.556
  0.389  0.020  0.000  0.556  0.035
    occupations:
  0.999 -0.000 -0.000 -0.000 -0.000
 -0.000  0.997 -0.000  0.002 -0.002
 -0.000 -0.000  0.997 -0.002 -0.002
 -0.000  0.002 -0.002  0.998  0.000
 -0.000 -0.002 -0.002  0.000  0.998
atomic mag. moment =  -3.66273
atom    4   Tr[ns(na)] (up, down, total) =   4.99200  1.44291  6.43491
   spin  1
    eigenvalues: 
  0.996  0.996  1.000  1.000  1.000
    eigenvectors:
  0.000  0.000  1.000  0.000  0.000
  0.002  0.585  0.000  0.027  0.386
  0.585  0.002  0.000  0.386  0.027
  0.168  0.246  0.000  0.126  0.460
  0.246  0.168  0.000  0.460  0.126
    occupations:
  1.000 -0.000 -0.000 -0.000 -0.000
 -0.000  0.998 -0.000 -0.001 -0.001
 -0.000 -0.000  0.998 -0.001  0.001
 -0.000 -0.001 -0.001  0.998  0.000
 -0.000 -0.001  0.001  0.000  0.998
   spin  2
    eigenvalues: 
  0.223  0.223  0.226  0.386  0.386
    eigenvectors:
  0.000  0.000  1.000  0.000  0.000
  0.039  0.352  0.000  0.008  0.600
  0.352  0.039  0.000  0.600  0.008
  0.166  0.442  0.000  0.183  0.208
  0.442  0.166  0.000  0.208  0.183
    occupations:
  0.226 -0.000 -0.000 -0.000 -0.000
 -0.000  0.322 -0.000  0.051  0.061
 -0.000 -0.000  0.322  0.061 -0.051
 -0.000  0.051  0.061  0.286  0.000
 -0.000  0.061 -0.051  0.000  0.286
atomic mag. moment =   3.54909
atom    5   Tr[ns(na)] (up, down, total) =   1.33154  4.98918  6.32072
   spin  1
    eigenvalues: 
  0.199  0.199  0.206  0.364  0.364
    eigenvectors:
  0.000  0.000  1.000  0.000  0.000
  0.345  0.063  0.000  0.483  0.109
  0.063  0.345  0.000  0.109  0.483
  0.051  0.541  0.000  0.026  0.382
  0.541  0.051  0.000  0.382  0.026
    occupations:
  0.206 -0.000 -0.000 -0.000 -0.000
 -0.000  0.296 -0.000 -0.052  0.062
 -0.000 -0.000  0.296  0.062  0.052
 -0.000 -0.052  0.062  0.266  0.000
 -0.000  0.062  0.052  0.000  0.266
   spin  2
    eigenvalues: 
  0.995  0.995  0.999  1.000  1.000
    eigenvectors:
  0.000  0.000  1.000  0.000  0.000
  0.406  0.184  0.000  0.290  0.121
  0.184  0.406  0.000  0.121  0.290
  0.021  0.390  0.000  0.035  0.555
  0.390  0.021  0.000  0.555  0.035
    occupations:
  0.999 -0.000 -0.000 -0.000 -0.000
 -0.000  0.997 -0.000  0.002 -0.002
 -0.000 -0.000  0.997 -0.002 -0.002
 -0.000  0.002 -0.002  0.998  0.000
 -0.000 -0.002 -0.002  0.000  0.998
atomic mag. moment =  -3.65765
atom    6   Tr[ns(na)] (up, down, total) =   4.99241  1.45343  6.44583
   spin  1
    eigenvalues: 
  0.996  0.996  1.000  1.000  1.000
    eigenvectors:
  0.000  0.000  1.000  0.000  0.000
  0.002  0.582  0.000  0.027  0.390
  0.582  0.002  0.000  0.390  0.027
  0.167  0.249  0.000  0.126  0.457
  0.249  0.167  0.000  0.457  0.126
    occupations:
  1.000 -0.000 -0.000 -0.000 -0.000
 -0.000  0.998 -0.000 -0.001 -0.001
 -0.000 -0.000  0.998 -0.001  0.001
 -0.000 -0.001 -0.001  0.998  0.000
 -0.000 -0.001  0.001  0.000  0.998
   spin  2
    eigenvalues: 
  0.225  0.225  0.232  0.385  0.385
    eigenvectors:
  0.000  0.000  1.000  0.000  0.000
  0.042  0.353  0.000  0.009  0.596
  0.353  0.042  0.000  0.596  0.009
  0.165  0.440  0.000  0.186  0.209
  0.440  0.165  0.000  0.209  0.186
    occupations:
  0.232 -0.000 -0.000 -0.000 -0.000
 -0.000  0.322 -0.000  0.050  0.060
 -0.000 -0.000  0.322  0.060 -0.050
 -0.000  0.050  0.060  0.288  0.000
 -0.000  0.060 -0.050  0.000  0.288
atomic mag. moment =   3.53898
N of occupied +U levels =   38.269738
 --- exit write_ns ---

     negative rho (up, down):  1.207E-01 1.207E-01
 --- in v_hubbard ---
Hubbard energy    0.5753
 -------

     total cpu time spent up to now is     1245.3 secs

     total energy              =   -3194.37218152 Ry
     estimated scf accuracy    <       1.80735996 Ry

     total magnetization       =    -0.01 Bohr mag/cell
     absolute magnetization    =    25.08 Bohr mag/cell

     iteration #  6     ecut=    40.00 Ry     beta= 0.40
     CG style diagonalization
     ethr =  2.24E-04,  avg # of iterations =  3.1
 --- enter write_ns ---
 LDA+U parameters:
U( 3)     =  4.10000000
U( 4)     =  4.10000000
atom    1   Tr[ns(na)] (up, down, total) =   4.98644  1.42411  6.41055
   spin  1
    eigenvalues: 
  0.995  0.995  0.999  0.999  0.999
    eigenvectors:
  0.000  0.000  1.000  0.000  0.000
  0.002  0.570  0.000  0.027  0.401
  0.570  0.002  0.000  0.401  0.027
  0.170  0.258  0.000  0.126  0.446
  0.258  0.170  0.000  0.446  0.126
    occupations:
  0.999 -0.000 -0.000 -0.000 -0.000
 -0.000  0.997 -0.000 -0.002 -0.002
 -0.000 -0.000  0.997 -0.002  0.002
 -0.000 -0.002 -0.002  0.997  0.000
 -0.000 -0.002  0.002  0.000  0.997
   spin  2
    eigenvalues: 
  0.205  0.205  0.249  0.382  0.382
    eigenvectors:
  0.000  0.000  1.000  0.000  0.000
  0.033  0.355  0.000  0.005  0.607
  0.355  0.033  0.000  0.607  0.005
  0.155  0.457  0.000  0.174  0.213
  0.457  0.155  0.000  0.213  0.174
    occupations:
  0.249 -0.000 -0.000 -0.000 -0.000
 -0.000  0.314 -0.000  0.059  0.063
 -0.000 -0.000  0.314  0.063 -0.059
 -0.000  0.059  0.063  0.274  0.000
 -0.000  0.063 -0.059  0.000  0.274
atomic mag. moment =   3.56234
atom    2   Tr[ns(na)] (up, down, total) =   1.23233  4.98218  6.21451
   spin  1
    eigenvalues: 
  0.169  0.169  0.172  0.362  0.362
    eigenvectors:
  0.000  0.000  1.000  0.000  0.000
  0.322  0.078  0.000  0.440  0.160
  0.078  0.322  0.000  0.160  0.440
  0.053  0.547  0.000  0.019  0.381
  0.547  0.053  0.000  0.381  0.019
    occupations:
  0.172 -0.000 -0.000 -0.000 -0.000
 -0.000  0.285 -0.000 -0.065  0.069
 -0.000 -0.000  0.285  0.069  0.065
 -0.000 -0.065  0.069  0.246  0.000
 -0.000  0.069  0.065  0.000  0.246
   spin  2
    eigenvalues: 
  0.993  0.993  0.998  0.999  0.999
    eigenvectors:
  0.000  0.000  1.000  0.000  0.000
  0.402  0.169  0.000  0.296  0.134
  0.169  0.402  0.000  0.134  0.296
  0.027  0.403  0.000  0.031  0.539
  0.403  0.027  0.000  0.539  0.031
    occupations:
  0.998 -0.000 -0.000 -0.000 -0.000
 -0.000  0.996 -0.000  0.002 -0.002
 -0.000 -0.000  0.996 -0.002 -0.002
 -0.000  0.002 -0.002  0.996  0.000
 -0.000 -0.002 -0.002  0.000  0.996
atomic mag. moment =  -3.74985
atom    3   Tr[ns(na)] (up, down, total) =   1.22412  4.98274  6.20686
   spin  1
    eigenvalues: 
  0.166  0.168  0.168  0.361  0.361
    eigenvectors:
  1.000  0.000  0.000  0.000  0.000
  0.000  0.323  0.073  0.448  0.156
  0.000  0.073  0.323  0.156  0.448
  0.000  0.055  0.549  0.018  0.378
  0.000  0.549  0.055  0.378  0.018
    occupations:
  0.166 -0.000 -0.000 -0.000 -0.000
 -0.000  0.285 -0.000 -0.064  0.069
 -0.000 -0.000  0.285  0.069  0.064
 -0.000 -0.064  0.069  0.245  0.000
 -0.000  0.069  0.064  0.000  0.245
   spin  2
    eigenvalues: 
  0.993  0.993  0.998  0.999  0.999
    eigenvectors:
  0.000  0.000  1.000  0.000  0.000
  0.401  0.186  0.000  0.289  0.124
  0.186  0.401  0.000  0.124  0.289
  0.021  0.392  0.000  0.034  0.553
  0.392  0.021  0.000  0.553  0.034
    occupations:
  0.998 -0.000 -0.000 -0.000 -0.000
 -0.000  0.996 -0.000  0.002 -0.002
 -0.000 -0.000  0.996 -0.002 -0.002
 -0.000  0.002 -0.002  0.997  0.000
 -0.000 -0.002 -0.002  0.000  0.997
atomic mag. moment =  -3.75862
atom    4   Tr[ns(na)] (up, down, total) =   4.98526  1.27395  6.25921
   spin  1
    eigenvalues: 
  0.994  0.994  0.999  0.999  0.999
    eigenvectors:
  0.000  0.000  1.000  0.000  0.000
  0.002  0.573  0.000  0.027  0.397
  0.573  0.002  0.000  0.397  0.027
  0.169  0.255  0.000  0.126  0.450
  0.255  0.169  0.000  0.450  0.126
    occupations:
  0.999 -0.000 -0.000 -0.000 -0.000
 -0.000  0.996 -0.000 -0.002 -0.002
 -0.000 -0.000  0.996 -0.002  0.002
 -0.000 -0.002 -0.002  0.997  0.000
 -0.000 -0.002  0.002  0.000  0.997
   spin  2
    eigenvalues: 
  0.171  0.177  0.177  0.375  0.375
    eigenvectors:
  1.000  0.000  0.000  0.000  0.000
  0.000  0.028  0.369  0.005  0.597
  0.000  0.369  0.028  0.597  0.005
  0.000  0.166  0.437  0.176  0.221
  0.000  0.437  0.166  0.221  0.176
    occupations:
  0.171 -0.000 -0.000 -0.000 -0.000
 -0.000  0.296 -0.000  0.066  0.071
 -0.000 -0.000  0.296  0.071 -0.066
 -0.000  0.066  0.071  0.256  0.000
 -0.000  0.071 -0.066  0.000  0.256
atomic mag. moment =   3.71131
atom    5   Tr[ns(na)] (up, down, total) =   1.23025  4.98273  6.21297
   spin  1
    eigenvalues: 
  0.169  0.169  0.172  0.360  0.360
    eigenvectors:
  0.000  0.000  1.000  0.000  0.000
  0.327  0.075  0.000  0.452  0.146
  0.075  0.327  0.000  0.146  0.452
  0.052  0.546  0.000  0.021  0.381
  0.546  0.052  0.000  0.381  0.021
    occupations:
  0.172 -0.000 -0.000 -0.000 -0.000
 -0.000  0.283 -0.000 -0.064  0.069
 -0.000 -0.000  0.283  0.069  0.064
 -0.000 -0.064  0.069  0.246  0.000
 -0.000  0.069  0.064  0.000  0.246
   spin  2
    eigenvalues: 
  0.993  0.993  0.998  0.999  0.999
    eigenvectors:
  0.000  0.000  1.000  0.000  0.000
  0.403  0.175  0.000  0.294  0.129
  0.175  0.403  0.000  0.129  0.294
  0.024  0.399  0.000  0.032  0.545
  0.399  0.024  0.000  0.545  0.032
    occupations:
  0.998 -0.000 -0.000 -0.000 -0.000
 -0.000  0.996 -0.000  0.002 -0.002
 -0.000 -0.000  0.996 -0.002 -0.002
 -0.000  0.002 -0.002  0.997  0.000
 -0.000 -0.002 -0.002  0.000  0.997
atomic mag. moment =  -3.75248
atom    6   Tr[ns(na)] (up, down, total) =   4.98537  1.25482  6.24018
   spin  1
    eigenvalues: 
  0.994  0.994  0.999  0.999  0.999
    eigenvectors:
  0.000  0.000  1.000  0.000  0.000
  0.002  0.571  0.000  0.028  0.398
  0.571  0.002  0.000  0.398  0.028
  0.170  0.256  0.000  0.126  0.448
  0.256  0.170  0.000  0.448  0.126
    occupations:
  0.999 -0.000 -0.000 -0.000 -0.000
 -0.000  0.996 -0.000 -0.002 -0.002
 -0.000 -0.000  0.996 -0.002  0.002
 -0.000 -0.002 -0.002  0.997  0.000
 -0.000 -0.002  0.002  0.000  0.997
   spin  2
    eigenvalues: 
  0.167  0.174  0.174  0.370  0.370
    eigenvectors:
  1.000  0.000  0.000  0.000  0.000
  0.000  0.029  0.372  0.006  0.593
  0.000  0.372  0.029  0.593  0.006
  0.000  0.167  0.432  0.178  0.223
  0.000  0.432  0.167  0.223  0.178
    occupations:
  0.167 -0.000 -0.000 -0.000 -0.000
 -0.000  0.291 -0.000  0.065  0.071
 -0.000 -0.000  0.291  0.071 -0.065
 -0.000  0.065  0.071  0.252  0.000
 -0.000  0.071 -0.065  0.000  0.252
atomic mag. moment =   3.73055
N of occupied +U levels =   37.544292
 --- exit write_ns ---

     negative rho (up, down):  1.208E-01 1.208E-01
 --- in v_hubbard ---
Hubbard energy    0.6134
 -------

     total cpu time spent up to now is     1463.2 secs

     total energy              =   -3194.37445590 Ry
     estimated scf accuracy    <       0.68193509 Ry

     total magnetization       =    -0.09 Bohr mag/cell
     absolute magnetization    =    25.43 Bohr mag/cell

     iteration #  7     ecut=    40.00 Ry     beta= 0.40
     CG style diagonalization
     ethr =  2.24E-04,  avg # of iterations =  3.0
 --- enter write_ns ---
 LDA+U parameters:
U( 3)     =  4.10000000
U( 4)     =  4.10000000
atom    1   Tr[ns(na)] (up, down, total) =   4.97834  1.11652  6.09486
   spin  1
    eigenvalues: 
  0.992  0.992  0.998  0.998  0.998
    eigenvectors:
  0.000  0.000  1.000  0.000  0.000
  0.001  0.570  0.000  0.024  0.405
  0.570  0.001  0.000  0.405  0.024
  0.168  0.261  0.000  0.126  0.445
  0.261  0.168  0.000  0.445  0.126
    occupations:
  0.998 -0.000 -0.000 -0.000 -0.000
 -0.000  0.995 -0.000 -0.002 -0.002
 -0.000 -0.000  0.995 -0.002  0.002
 -0.000 -0.002 -0.002  0.996  0.000
 -0.000 -0.002  0.002  0.000  0.996
   spin  2
    eigenvalues: 
  0.144  0.144  0.148  0.341  0.341
    eigenvectors:
  0.000  0.000  1.000  0.000  0.000
  0.029  0.369  0.000  0.005  0.597
  0.369  0.029  0.000  0.597  0.005
  0.159  0.443  0.000  0.175  0.223
  0.443  0.159  0.000  0.223  0.175
    occupations:
  0.148 -0.000 -0.000 -0.000 -0.000
 -0.000  0.262 -0.000  0.066  0.070
 -0.000 -0.000  0.262  0.070 -0.066
 -0.000  0.066  0.070  0.222  0.000
 -0.000  0.070 -0.066  0.000  0.222
atomic mag. moment =   3.86182
atom    2   Tr[ns(na)] (up, down, total) =   1.20923  4.98120  6.19043
   spin  1
    eigenvalues: 
  0.161  0.161  0.166  0.361  0.361
    eigenvectors:
  0.000  0.000  1.000  0.000  0.000
  0.326  0.085  0.000  0.439  0.150
  0.085  0.326  0.000  0.150  0.439
  0.050  0.539  0.000  0.023  0.389
  0.539  0.050  0.000  0.389  0.023
    occupations:
  0.166 -0.000 -0.000 -0.000 -0.000
 -0.000  0.279 -0.000 -0.068  0.071
 -0.000 -0.000  0.279  0.071  0.068
 -0.000 -0.068  0.071  0.243  0.000
 -0.000  0.071  0.068  0.000  0.243
   spin  2
    eigenvalues: 
  0.993  0.993  0.998  0.999  0.999
    eigenvectors:
  0.000  0.000  1.000  0.000  0.000
  0.398  0.195  0.000  0.285  0.122
  0.195  0.398  0.000  0.122  0.285
  0.019  0.388  0.000  0.036  0.557
  0.388  0.019  0.000  0.557  0.036
    occupations:
  0.998 -0.000 -0.000 -0.000 -0.000
 -0.000  0.995 -0.000  0.002 -0.002
 -0.000 -0.000  0.995 -0.002 -0.002
 -0.000  0.002 -0.002  0.996  0.000
 -0.000 -0.002 -0.002  0.000  0.996
atomic mag. moment =  -3.77197
atom    3   Tr[ns(na)] (up, down, total) =   1.21677  4.98222  6.19900
   spin  1
    eigenvalues: 
  0.161  0.161  0.166  0.365  0.365
    eigenvectors:
  0.000  0.000  1.000  0.000  0.000
  0.308  0.074  0.000  0.428  0.190
  0.074  0.308  0.000  0.190  0.428
  0.058  0.561  0.000  0.012  0.369
  0.561  0.058  0.000  0.369  0.012
    occupations:
  0.166 -0.000 -0.000 -0.000 -0.000
 -0.000  0.287 -0.000 -0.069  0.071
 -0.000 -0.000  0.287  0.071  0.069
 -0.000 -0.069  0.071  0.238  0.000
 -0.000  0.071  0.069  0.000  0.238
   spin  2
    eigenvalues: 
  0.993  0.993  0.998  0.999  0.999
    eigenvectors:
  0.000  0.000  1.000  0.000  0.000
  0.374  0.166  0.000  0.293  0.167
  0.166  0.374  0.000  0.167  0.293
  0.037  0.423  0.000  0.027  0.513
  0.423  0.037  0.000  0.513  0.027
    occupations:
  0.998 -0.000 -0.000 -0.000 -0.000
 -0.000  0.996 -0.000  0.002 -0.002
 -0.000 -0.000  0.996 -0.002 -0.002
 -0.000  0.002 -0.002  0.996  0.000
 -0.000 -0.002 -0.002  0.000  0.996
atomic mag. moment =  -3.76545
atom    4   Tr[ns(na)] (up, down, total) =   4.98487  1.25608  6.24095
   spin  1
    eigenvalues: 
  0.994  0.994  0.998  0.999  0.999
    eigenvectors:
  0.000  0.000  1.000  0.000  0.000
  0.001  0.574  0.000  0.023  0.402
  0.574  0.001  0.000  0.402  0.023
  0.167  0.258  0.000  0.126  0.449
  0.258  0.167  0.000  0.449  0.126
    occupations:
  0.998 -0.000 -0.000 -0.000 -0.000
 -0.000  0.996 -0.000 -0.002 -0.002
 -0.000 -0.000  0.996 -0.002  0.002
 -0.000 -0.002 -0.002  0.997  0.000
 -0.000 -0.002  0.002  0.000  0.997
   spin  2
    eigenvalues: 
  0.164  0.169  0.169  0.377  0.377
    eigenvectors:
  1.000  0.000  0.000  0.000  0.000
  0.000  0.026  0.377  0.005  0.592
  0.000  0.377  0.026  0.592  0.005
  0.000  0.167  0.430  0.176  0.227
  0.000  0.430  0.167  0.227  0.176
    occupations:
  0.164 -0.000 -0.000 -0.000 -0.000
 -0.000  0.293 -0.000  0.070  0.074
 -0.000 -0.000  0.293  0.074 -0.070
 -0.000  0.070  0.074  0.253  0.000
 -0.000  0.074 -0.070  0.000  0.253
atomic mag. moment =   3.72879
atom    5   Tr[ns(na)] (up, down, total) =   1.20236  4.98079  6.18315
   spin  1
    eigenvalues: 
  0.160  0.160  0.160  0.361  0.361
    eigenvectors:
  0.000  0.000  1.000  0.000  0.000
  0.324  0.076  0.000  0.447  0.154
  0.076  0.324  0.000  0.154  0.447
  0.053  0.548  0.000  0.019  0.381
  0.548  0.053  0.000  0.381  0.019
    occupations:
  0.160 -0.000 -0.000 -0.000 -0.000
 -0.000  0.281 -0.000 -0.067  0.072
 -0.000 -0.000  0.281  0.072  0.067
 -0.000 -0.067  0.072  0.240  0.000
 -0.000  0.072  0.067  0.000  0.240
   spin  2
    eigenvalues: 
  0.993  0.993  0.998  0.999  0.999
    eigenvectors:
  0.000  0.000  1.000  0.000  0.000
  0.389  0.188  0.000  0.286  0.137
  0.188  0.389  0.000  0.137  0.286
  0.024  0.399  0.000  0.033  0.544
  0.399  0.024  0.000  0.544  0.033
    occupations:
  0.998 -0.000 -0.000 -0.000 -0.000
 -0.000  0.995 -0.000  0.002 -0.002
 -0.000 -0.000  0.995 -0.002 -0.002
 -0.000  0.002 -0.002  0.996  0.000
 -0.000 -0.002 -0.002  0.000  0.996
atomic mag. moment =  -3.77843
atom    6   Tr[ns(na)] (up, down, total) =   4.98567  1.34231  6.32798
   spin  1
    eigenvalues: 
  0.995  0.995  0.999  0.999  0.999
    eigenvectors:
  0.000  0.000  1.000  0.000  0.000
  0.001  0.557  0.000  0.021  0.421
  0.557  0.001  0.000  0.421  0.021
  0.168  0.273  0.000  0.125  0.433
  0.273  0.168  0.000  0.433  0.125
    occupations:
  0.999 -0.000 -0.000 -0.000 -0.000
 -0.000  0.997 -0.000 -0.002 -0.001
 -0.000 -0.000  0.997 -0.001  0.002
 -0.000 -0.002 -0.001  0.997  0.000
 -0.000 -0.001  0.002  0.000  0.997
   spin  2
    eigenvalues: 
  0.182  0.182  0.211  0.383  0.383
    eigenvectors:
  0.000  0.000  1.000  0.000  0.000
  0.028  0.359  0.000  0.004  0.608
  0.359  0.028  0.000  0.608  0.004
  0.160  0.452  0.000  0.172  0.216
  0.452  0.160  0.000  0.216  0.172
    occupations:
  0.211 -0.000 -0.000 -0.000 -0.000
 -0.000  0.305 -0.000  0.068  0.071
 -0.000 -0.000  0.305  0.071 -0.068
 -0.000  0.068  0.071  0.260  0.000
 -0.000  0.071 -0.068  0.000  0.260
atomic mag. moment =   3.64337
N of occupied +U levels =   37.236362
 --- exit write_ns ---

     negative rho (up, down):  1.208E-01 1.208E-01
 --- in v_hubbard ---
Hubbard energy    0.6391
 -------

     total cpu time spent up to now is     1678.1 secs

     total energy              =   -3194.36488809 Ry
     estimated scf accuracy    <       0.43600952 Ry

     total magnetization       =    -0.02 Bohr mag/cell
     absolute magnetization    =    25.63 Bohr mag/cell

     iteration #  8     ecut=    40.00 Ry     beta= 0.40
     CG style diagonalization
     ethr =  1.48E-04,  avg # of iterations =  3.0
 --- enter write_ns ---
 LDA+U parameters:
U( 3)     =  4.10000000
U( 4)     =  4.10000000
atom    1   Tr[ns(na)] (up, down, total) =   4.98143  1.14844  6.12988
   spin  1
    eigenvalues: 
  0.993  0.993  0.998  0.998  0.998
    eigenvectors:
  0.000  0.000  1.000  0.000  0.000
  0.001  0.563  0.000  0.021  0.414
  0.563  0.001  0.000  0.414  0.021
  0.167  0.268  0.000  0.125  0.439
  0.268  0.167  0.000  0.439  0.125
    occupations:
  0.998 -0.000 -0.000 -0.000 -0.000
 -0.000  0.996 -0.000 -0.002 -0.002
 -0.000 -0.000  0.996 -0.002  0.002
 -0.000 -0.002 -0.002  0.996  0.000
 -0.000 -0.002  0.002  0.000  0.996
   spin  2
    eigenvalues: 
  0.146  0.148  0.148  0.353  0.353
    eigenvectors:
  1.000  0.000  0.000  0.000  0.000
  0.000  0.027  0.376  0.005  0.593
  0.000  0.376  0.027  0.593  0.005
  0.000  0.162  0.436  0.175  0.228
  0.000  0.436  0.162  0.228  0.175
    occupations:
  0.146 -0.000 -0.000 -0.000 -0.000
 -0.000  0.271 -0.000  0.069  0.072
 -0.000 -0.000  0.271  0.072 -0.069
 -0.000  0.069  0.072  0.231  0.000
 -0.000  0.072 -0.069  0.000  0.231
atomic mag. moment =   3.83299
atom    2   Tr[ns(na)] (up, down, total) =   1.13370  4.97977  6.11347
   spin  1
    eigenvalues: 
  0.143  0.145  0.145  0.350  0.350
    eigenvectors:
  1.000  0.000  0.000  0.000  0.000
  0.000  0.322  0.083  0.435  0.160
  0.000  0.083  0.322  0.160  0.435
  0.000  0.052  0.544  0.020  0.384
  0.000  0.544  0.052  0.384  0.020
    occupations:
  0.143 -0.000 -0.000 -0.000 -0.000
 -0.000  0.267 -0.000 -0.070  0.072
 -0.000 -0.000  0.267  0.072  0.070
 -0.000 -0.070  0.072  0.228  0.000
 -0.000  0.072  0.070  0.000  0.228
   spin  2
    eigenvalues: 
  0.993  0.993  0.998  0.998  0.998
    eigenvectors:
  0.000  0.000  1.000  0.000  0.000
  0.383  0.192  0.000  0.283  0.142
  0.192  0.383  0.000  0.142  0.283
  0.025  0.401  0.000  0.033  0.541
  0.401  0.025  0.000  0.541  0.033
    occupations:
  0.998 -0.000 -0.000 -0.000 -0.000
 -0.000  0.995 -0.000  0.002 -0.002
 -0.000 -0.000  0.995 -0.002 -0.002
 -0.000  0.002 -0.002  0.996  0.000
 -0.000 -0.002 -0.002  0.000  0.996
atomic mag. moment =  -3.84608
atom    3   Tr[ns(na)] (up, down, total) =   1.14501  4.98038  6.12539
   spin  1
    eigenvalues: 
  0.146  0.147  0.147  0.353  0.353
    eigenvectors:
  1.000  0.000  0.000  0.000  0.000
  0.000  0.316  0.078  0.435  0.172
  0.000  0.078  0.316  0.172  0.435
  0.000  0.055  0.551  0.016  0.378
  0.000  0.551  0.055  0.378  0.016
    occupations:
  0.146 -0.000 -0.000 -0.000 -0.000
 -0.000  0.272 -0.000 -0.070  0.073
 -0.000 -0.000  0.272  0.073  0.070
 -0.000 -0.070  0.073  0.228  0.000
 -0.000  0.073  0.070  0.000  0.228
   spin  2
    eigenvalues: 
  0.993  0.993  0.998  0.998  0.998
    eigenvectors:
  0.000  0.000  1.000  0.000  0.000
  0.383  0.179  0.000  0.289  0.149
  0.179  0.383  0.000  0.149  0.289
  0.029  0.409  0.000  0.031  0.531
  0.409  0.029  0.000  0.531  0.031
    occupations:
  0.998 -0.000 -0.000 -0.000 -0.000
 -0.000  0.995 -0.000  0.002 -0.002
 -0.000 -0.000  0.995 -0.002 -0.002
 -0.000  0.002 -0.002  0.996  0.000
 -0.000 -0.002 -0.002  0.000  0.996
atomic mag. moment =  -3.83537
atom    4   Tr[ns(na)] (up, down, total) =   4.98337  1.29345  6.27682
   spin  1
    eigenvalues: 
  0.994  0.994  0.998  0.999  0.999
    eigenvectors:
  0.000  0.000  1.000  0.000  0.000
  0.001  0.563  0.000  0.021  0.415
  0.563  0.001  0.000  0.415  0.021
  0.167  0.269  0.000  0.126  0.438
  0.269  0.167  0.000  0.438  0.126
    occupations:
  0.998 -0.000 -0.000 -0.000 -0.000
 -0.000  0.996 -0.000 -0.002 -0.002
 -0.000 -0.000  0.996 -0.002  0.002
 -0.000 -0.002 -0.002  0.997  0.000
 -0.000 -0.002  0.002  0.000  0.997
   spin  2
    eigenvalues: 
  0.165  0.165  0.231  0.366  0.366
    eigenvectors:
  0.000  0.000  1.000  0.000  0.000
  0.031  0.360  0.000  0.004  0.605
  0.360  0.031  0.000  0.605  0.004
  0.153  0.456  0.000  0.172  0.218
  0.456  0.153  0.000  0.218  0.172
    occupations:
  0.231 -0.000 -0.000 -0.000 -0.000
 -0.000  0.288 -0.000  0.068  0.071
 -0.000 -0.000  0.288  0.071 -0.068
 -0.000  0.068  0.071  0.244  0.000
 -0.000  0.071 -0.068  0.000  0.244
atomic mag. moment =   3.68991
atom    5   Tr[ns(na)] (up, down, total) =   1.13368  4.98035  6.11403
   spin  1
    eigenvalues: 
  0.140  0.143  0.143  0.354  0.354
    eigenvectors:
  1.000  0.000  0.000  0.000  0.000
  0.000  0.320  0.074  0.440  0.167
  0.000  0.074  0.320  0.167  0.440
  0.000  0.057  0.550  0.017  0.377
  0.000  0.550  0.057  0.377  0.017
    occupations:
  0.140 -0.000 -0.000 -0.000 -0.000
 -0.000  0.271 -0.000 -0.071  0.075
 -0.000 -0.000  0.271  0.075  0.071
 -0.000 -0.071  0.075  0.226  0.000
 -0.000  0.075  0.071  0.000  0.226
   spin  2
    eigenvalues: 
  0.993  0.993  0.998  0.998  0.998
    eigenvectors:
  0.000  0.000  1.000  0.000  0.000
  0.380  0.175  0.000  0.290  0.155
  0.175  0.380  0.000  0.155  0.290
  0.031  0.414  0.000  0.030  0.525
  0.414  0.031  0.000  0.525  0.030
    occupations:
  0.998 -0.000 -0.000 -0.000 -0.000
 -0.000  0.995 -0.000  0.002 -0.002
 -0.000 -0.000  0.995 -0.002 -0.002
 -0.000  0.002 -0.002  0.996  0.000
 -0.000 -0.002 -0.002  0.000  0.996
atomic mag. moment =  -3.84667
atom    6   Tr[ns(na)] (up, down, total) =   4.98178  1.15031  6.13210
   spin  1
    eigenvalues: 
  0.993  0.993  0.998  0.998  0.998
    eigenvectors:
  0.000  0.000  1.000  0.000  0.000
  0.001  0.559  0.000  0.020  0.420
  0.559  0.001  0.000  0.420  0.020
  0.168  0.273  0.000  0.125  0.434
  0.273  0.168  0.000  0.434  0.125
    occupations:
  0.998 -0.000 -0.000 -0.000 -0.000
 -0.000  0.996 -0.000 -0.002 -0.002
 -0.000 -0.000  0.996 -0.002  0.002
 -0.000 -0.002 -0.002  0.996  0.000
 -0.000 -0.002  0.002  0.000  0.996
   spin  2
    eigenvalues: 
  0.144  0.147  0.147  0.356  0.356
    eigenvectors:
  1.000  0.000  0.000  0.000  0.000
  0.000  0.027  0.370  0.004  0.599
  0.000  0.370  0.027  0.599  0.004
  0.000  0.162  0.441  0.174  0.222
  0.000  0.441  0.162  0.222  0.174
    occupations:
  0.144 -0.000 -0.000 -0.000 -0.000
 -0.000  0.273 -0.000  0.071  0.074
 -0.000 -0.000  0.273  0.074 -0.071
 -0.000  0.071  0.074  0.230  0.000
 -0.000  0.074 -0.071  0.000  0.230
atomic mag. moment =   3.83147
N of occupied +U levels =   36.891677
 --- exit write_ns ---

     negative rho (up, down):  1.208E-01 1.208E-01
 --- in v_hubbard ---
Hubbard energy    0.6451
 -------

     total cpu time spent up to now is     1893.6 secs

     total energy              =   -3194.36682931 Ry
     estimated scf accuracy    <       0.22854227 Ry

     total magnetization       =    -0.13 Bohr mag/cell
     absolute magnetization    =    25.85 Bohr mag/cell

     iteration #  9     ecut=    40.00 Ry     beta= 0.40
     CG style diagonalization
     ethr =  7.77E-05,  avg # of iterations =  3.0
 --- enter write_ns ---
 LDA+U parameters:
U( 3)     =  4.10000000
U( 4)     =  4.10000000
atom    1   Tr[ns(na)] (up, down, total) =   4.98120  1.15250  6.13371
   spin  1
    eigenvalues: 
  0.993  0.993  0.998  0.998  0.998
    eigenvectors:
  0.000  0.000  1.000  0.000  0.000
  0.001  0.557  0.000  0.020  0.422
  0.557  0.001  0.000  0.422  0.020
  0.167  0.274  0.000  0.125  0.433
  0.274  0.167  0.000  0.433  0.125
    occupations:
  0.998 -0.000 -0.000 -0.000 -0.000
 -0.000  0.996 -0.000 -0.002 -0.002
 -0.000 -0.000  0.996 -0.002  0.002
 -0.000 -0.002 -0.002  0.996  0.000
 -0.000 -0.002  0.002  0.000  0.996
   spin  2
    eigenvalues: 
  0.141  0.141  0.163  0.354  0.354
    eigenvectors:
  0.000  0.000  1.000  0.000  0.000
  0.024  0.374  0.000  0.004  0.598
  0.374  0.024  0.000  0.598  0.004
  0.167  0.435  0.000  0.174  0.224
  0.435  0.167  0.000  0.224  0.174
    occupations:
  0.163 -0.000 -0.000 -0.000 -0.000
 -0.000  0.269 -0.000  0.072  0.075
 -0.000 -0.000  0.269  0.075 -0.072
 -0.000  0.072  0.075  0.226  0.000
 -0.000  0.075 -0.072  0.000  0.226
atomic mag. moment =   3.82870
atom    2   Tr[ns(na)] (up, down, total) =   1.13066  4.98013  6.11079
   spin  1
    eigenvalues: 
  0.142  0.143  0.143  0.352  0.352
    eigenvectors:
  1.000  0.000  0.000  0.000  0.000
  0.000  0.317  0.081  0.432  0.170
  0.000  0.081  0.317  0.170  0.432
  0.000  0.054  0.548  0.018  0.380
  0.000  0.548  0.054  0.380  0.018
    occupations:
  0.142 -0.000 -0.000 -0.000 -0.000
 -0.000  0.269 -0.000 -0.071  0.073
 -0.000 -0.000  0.269  0.073  0.071
 -0.000 -0.071  0.073  0.226  0.000
 -0.000  0.073  0.071  0.000  0.226
   spin  2
    eigenvalues: 
  0.993  0.993  0.998  0.998  0.998
    eigenvectors:
  0.000  0.000  1.000  0.000  0.000
  0.378  0.180  0.000  0.288  0.155
  0.180  0.378  0.000  0.155  0.288
  0.030  0.412  0.000  0.030  0.527
  0.412  0.030  0.000  0.527  0.030
    occupations:
  0.998 -0.000 -0.000 -0.000 -0.000
 -0.000  0.995 -0.000  0.002 -0.002
 -0.000 -0.000  0.995 -0.002 -0.002
 -0.000  0.002 -0.002  0.996  0.000
 -0.000 -0.002 -0.002  0.000  0.996
atomic mag. moment =  -3.84947
atom    3   Tr[ns(na)] (up, down, total) =   1.12235  4.98007  6.10242
   spin  1
    eigenvalues: 
  0.136  0.136  0.144  0.353  0.353
    eigenvectors:
  0.000  0.000  1.000  0.000  0.000
  0.319  0.073  0.000  0.435  0.172
  0.073  0.319  0.000  0.172  0.435
  0.059  0.548  0.000  0.016  0.377
  0.548  0.059  0.000  0.377  0.016
    occupations:
  0.144 -0.000 -0.000 -0.000 -0.000
 -0.000  0.268 -0.000 -0.073  0.076
 -0.000 -0.000  0.268  0.076  0.073
 -0.000 -0.073  0.076  0.221  0.000
 -0.000  0.076  0.073  0.000  0.221
   spin  2
    eigenvalues: 
  0.993  0.993  0.998  0.998  0.998
    eigenvectors:
  0.000  0.000  1.000  0.000  0.000
  0.378  0.179  0.000  0.289  0.154
  0.179  0.378  0.000  0.154  0.289
  0.030  0.413  0.000  0.030  0.526
  0.413  0.030  0.000  0.526  0.030
    occupations:
  0.998 -0.000 -0.000 -0.000 -0.000
[...]
    14.3242  14.3242  14.3480  14.3480  15.0573  15.0573  15.2536  15.2548
    15.2548  15.3599  15.3599  15.6392  17.1436  17.1448  17.2820  17.2830
    17.3946  17.3947  17.4327  17.4329  17.5537  17.5551  18.2372  18.2381

     occupation numbers 
     1.0000   1.0000   1.0000   1.0000   1.0000   1.0000   1.0000   1.0000
     1.0000   1.0000   1.0000   1.0000   1.0000   1.0000   1.0000   1.0000
     1.0000   1.0000   1.0000   1.0000   1.0000   1.0000   1.0000   1.0000
     1.0000   1.0000   1.0000   1.0000   1.0000   1.0000   1.0000   1.0000
     1.0000   1.0000   1.0000   1.0000   1.0000   1.0000   1.0000   1.0000
     1.0000   1.0000   1.0000   1.0000   1.0000   1.0000   1.0000   1.0000
     1.0000   1.0000   1.0000   1.0000   1.0000   1.0000   1.0000   1.0000
     1.0000   1.0000   1.0000   1.0000   1.0000   1.0000   1.0000   1.0000
     1.0000   1.0000   1.0000   1.0000   1.0000   1.0000   1.0000   1.0000
     1.0000   1.0000   1.0000   1.0000   1.0000   1.0000   1.0000   1.0000
     1.0000   1.0000   1.0000   1.0000   1.0000   1.0000   1.0000   1.0000
     1.0000   1.0000   1.0000   1.0000   1.0000   1.0000   1.0000   1.0000
     1.0000   1.0000   1.0000   1.0000   1.0000   1.0000   1.0000   1.0000
     1.0000   1.0000   1.0000   1.0000   1.0000   1.0000   1.0000   1.0000
     1.0000   1.0000   1.0000   1.0000   1.0000   1.0000   1.0000   1.0000
     1.0000   1.0000   1.0000   1.0000   1.0000   1.0000   1.0000   1.0000
     1.0000   1.0000   1.0000   1.0000   1.0000   1.0000   1.0000   1.0000
     1.0000   1.0000   1.0000   1.0000   1.0000   1.0000   1.0000   1.0000
     1.0000   1.0000   1.0000  -0.0000  -0.0000  -0.0000  -0.0000  -0.0000
    -0.0000  -0.0000  -0.0000  -0.0000  -0.0000  -0.0000  -0.0000  -0.0000
    -0.0000  -0.0000  -0.0000  -0.0000  -0.0000  -0.0000  -0.0000  -0.0000
    -0.0000  -0.0000  -0.0000  -0.0000  -0.0000  -0.0000  -0.0000  -0.0000

          k = 0.0000 0.3849 0.0000 ( 10334 PWs)   bands (ev):

   -78.9420 -78.9412 -78.9408 -73.8034 -73.8032 -73.8018 -44.9602 -44.9589
   -44.9588 -44.8859 -44.8859 -44.8853 -44.8853 -44.8847 -44.8847 -39.9512
   -39.9504 -39.9494 -39.8972 -39.8972 -39.8971 -39.8971 -39.8956 -39.8956
   -10.4469 -10.4370 -10.4168 -10.4129 -10.3926 -10.3849 -10.3805 -10.3790
   -10.3640 -10.3615 -10.3534 -10.3531 -10.3479 -10.3347 -10.3320 -10.3282
   -10.3226 -10.3213 -10.3172 -10.3132 -10.3123 -10.3100 -10.3073 -10.3023
   -10.3018 -10.2966 -10.2897 -10.2842 -10.2743 -10.2654  -6.7980  -6.4888
    -6.4352  -5.9986  -5.7254  -5.7093  -5.4895  -5.3910  -5.3851  -5.3391
    -5.2943  -5.1759  -5.1191  -5.1036  -5.0733  -5.0212  -4.9896  -4.9858
     1.7332   1.8120   1.9950   2.2470   2.5033   2.7101   4.7161   4.8469
     4.8787   4.9788   4.9911   5.0896   5.1037   5.1545   5.1702   5.1732
     5.2377   5.3162   5.5011   5.5367   5.5836   6.1346   6.4497   6.5168
     6.7950   7.0861   7.1654   7.2473   7.3843   7.4236   7.4652   7.6556
     7.7169   7.8142   7.9861   8.0047   8.2120   8.2586   8.3634   8.3882
     8.7266   8.7928   8.9228   8.9434   9.0092   9.0982   9.1365   9.2988
     9.3298   9.4384   9.5690   9.6668   9.7093   9.8680   9.9194   9.9688
    10.0183  10.0514  10.0802  10.1639  10.1871  10.3071  10.4011  10.5498
    10.6632  10.8387  11.0477  11.0799  11.2507  11.2929  11.4113  11.4574
    11.6353  11.7062  11.7398  14.1892  14.2352  14.2511  14.2978  14.3046
    14.3546  14.4185  14.4341  14.4500  14.6370  14.9049  15.0092  15.0504
    15.1866  15.2766  15.4354  15.8849  16.0699  16.1710  16.3361  16.4468
    16.6346  16.6607  16.9740  17.3625  17.3751  17.4696  17.9164  18.0529

     occupation numbers 
     1.0000   1.0000   1.0000   1.0000   1.0000   1.0000   1.0000   1.0000
     1.0000   1.0000   1.0000   1.0000   1.0000   1.0000   1.0000   1.0000
     1.0000   1.0000   1.0000   1.0000   1.0000   1.0000   1.0000   1.0000
     1.0000   1.0000   1.0000   1.0000   1.0000   1.0000   1.0000   1.0000
     1.0000   1.0000   1.0000   1.0000   1.0000   1.0000   1.0000   1.0000
     1.0000   1.0000   1.0000   1.0000   1.0000   1.0000   1.0000   1.0000
     1.0000   1.0000   1.0000   1.0000   1.0000   1.0000   1.0000   1.0000
     1.0000   1.0000   1.0000   1.0000   1.0000   1.0000   1.0000   1.0000
     1.0000   1.0000   1.0000   1.0000   1.0000   1.0000   1.0000   1.0000
     1.0000   1.0000   1.0000   1.0000   1.0000   1.0000   1.0000   1.0000
     1.0000   1.0000   1.0000   1.0000   1.0000   1.0000   1.0000   1.0000
     1.0000   1.0000   1.0000   1.0000   1.0000   1.0000   1.0000   1.0000
     1.0000   1.0000   1.0000   1.0000   1.0000   1.0000   1.0000   1.0000
     1.0000   1.0000   1.0000   1.0000   1.0000   1.0000   1.0000   1.0000
     1.0000   1.0000   1.0000   1.0000   1.0000   1.0000   1.0000   1.0000
     1.0000   1.0000   1.0000   1.0000   1.0000   1.0000   1.0000   1.0000
     1.0000   1.0000   1.0000   1.0000   1.0000   1.0000   1.0000   1.0000
     1.0000   1.0000   1.0000   1.0000   1.0000   1.0000   1.0000   1.0000
     1.0000   1.0000   1.0000  -0.0000  -0.0000  -0.0000  -0.0000  -0.0000
    -0.0000  -0.0000  -0.0000  -0.0000  -0.0000  -0.0000  -0.0000  -0.0000
    -0.0000  -0.0000  -0.0000  -0.0000  -0.0000  -0.0000  -0.0000  -0.0000
    -0.0000  -0.0000  -0.0000  -0.0000  -0.0000  -0.0000  -0.0000  -0.0000

          k = 0.0000 0.3849-0.2034 ( 10350 PWs)   bands (ev):

   -78.9420 -78.9412 -78.9408 -73.8034 -73.8032 -73.8018 -44.9602 -44.9589
   -44.9588 -44.8859 -44.8859 -44.8853 -44.8853 -44.8847 -44.8847 -39.9512
   -39.9504 -39.9494 -39.8972 -39.8972 -39.8971 -39.8971 -39.8956 -39.8956
   -10.4517 -10.4244 -10.4219 -10.4085 -10.4016 -10.3913 -10.3797 -10.3739
   -10.3648 -10.3626 -10.3559 -10.3484 -10.3397 -10.3383 -10.3361 -10.3270
   -10.3200 -10.3199 -10.3182 -10.3159 -10.3153 -10.3092 -10.3084 -10.3008
   -10.2969 -10.2933 -10.2933 -10.2826 -10.2824 -10.2620  -6.7184  -6.6976
    -6.2169  -6.0434  -5.8710  -5.6089  -5.5279  -5.4136  -5.3761  -5.2778
    -5.2518  -5.1692  -5.1556  -5.1071  -5.1006  -5.0082  -4.9917  -4.9868
     1.7245   1.8840   1.9258   2.2214   2.5482   2.6968   4.7356   4.7956
     4.9192   5.0037   5.0395   5.0622   5.0680   5.1170   5.1514   5.1703
     5.2216   5.3575   5.5146   5.5563   5.5863   6.2339   6.2713   6.5844
     6.9058   6.9086   7.1384   7.2292   7.2759   7.4969   7.6149   7.6500
     7.7204   7.7809   7.9589   8.0327   8.2121   8.2695   8.3484   8.5277
     8.6297   8.7769   8.8935   8.9538   9.0808   9.1512   9.1616   9.2091
     9.4001   9.4371   9.5109   9.5814   9.7547   9.7943   9.8741  10.0169
    10.0423  10.0744  10.1260  10.1765  10.1902  10.3117  10.3239  10.5891
    10.5990  10.8948  10.9208  11.2071  11.2212  11.2948  11.4287  11.4465
    11.6689  11.6944  11.7354  14.1645  14.2170  14.2738  14.2825  14.3357
    14.3705  14.4098  14.4408  14.4420  14.7342  14.7610  14.9821  15.1217
    15.1288  15.3439  15.5503  15.8203  15.9407  16.0587  16.2810  16.4670
    16.8114  16.8435  17.1246  17.1816  17.3912  17.4959  17.9303  18.1108

     occupation numbers 
     1.0000   1.0000   1.0000   1.0000   1.0000   1.0000   1.0000   1.0000
     1.0000   1.0000   1.0000   1.0000   1.0000   1.0000   1.0000   1.0000
     1.0000   1.0000   1.0000   1.0000   1.0000   1.0000   1.0000   1.0000
     1.0000   1.0000   1.0000   1.0000   1.0000   1.0000   1.0000   1.0000
     1.0000   1.0000   1.0000   1.0000   1.0000   1.0000   1.0000   1.0000
     1.0000   1.0000   1.0000   1.0000   1.0000   1.0000   1.0000   1.0000
     1.0000   1.0000   1.0000   1.0000   1.0000   1.0000   1.0000   1.0000
     1.0000   1.0000   1.0000   1.0000   1.0000   1.0000   1.0000   1.0000
     1.0000   1.0000   1.0000   1.0000   1.0000   1.0000   1.0000   1.0000
     1.0000   1.0000   1.0000   1.0000   1.0000   1.0000   1.0000   1.0000
     1.0000   1.0000   1.0000   1.0000   1.0000   1.0000   1.0000   1.0000
     1.0000   1.0000   1.0000   1.0000   1.0000   1.0000   1.0000   1.0000
     1.0000   1.0000   1.0000   1.0000   1.0000   1.0000   1.0000   1.0000
     1.0000   1.0000   1.0000   1.0000   1.0000   1.0000   1.0000   1.0000
     1.0000   1.0000   1.0000   1.0000   1.0000   1.0000   1.0000   1.0000
     1.0000   1.0000   1.0000   1.0000   1.0000   1.0000   1.0000   1.0000
     1.0000   1.0000   1.0000   1.0000   1.0000   1.0000   1.0000   1.0000
     1.0000   1.0000   1.0000   1.0000   1.0000   1.0000   1.0000   1.0000
     1.0000   1.0000   1.0000  -0.0000  -0.0000  -0.0000  -0.0000  -0.0000
    -0.0000  -0.0000  -0.0000  -0.0000  -0.0000  -0.0000  -0.0000  -0.0000
    -0.0000  -0.0000  -0.0000  -0.0000  -0.0000  -0.0000  -0.0000  -0.0000
    -0.0000  -0.0000  -0.0000  -0.0000  -0.0000  -0.0000  -0.0000  -0.0000

          k = 0.3333 0.5774 0.0000 ( 10380 PWs)   bands (ev):

   -78.9420 -78.9412 -78.9408 -73.8034 -73.8032 -73.8018 -44.9602 -44.9589
   -44.9588 -44.8859 -44.8859 -44.8853 -44.8853 -44.8847 -44.8847 -39.9512
   -39.9504 -39.9494 -39.8972 -39.8972 -39.8971 -39.8971 -39.8956 -39.8956
   -10.4185 -10.4184 -10.4182 -10.4081 -10.4080 -10.4077 -10.3701 -10.3700
   -10.3698 -10.3446 -10.3445 -10.3445 -10.3369 -10.3368 -10.3367 -10.3216
   -10.3215 -10.3215 -10.3151 -10.3150 -10.3149 -10.3106 -10.3105 -10.3105
   -10.2956 -10.2956 -10.2956 -10.2887 -10.2886 -10.2886  -6.2175  -6.2169
    -6.2151  -6.1095  -6.1091  -6.1067  -5.5156  -5.5136  -5.5135  -5.2519
    -5.2513  -5.2511  -5.1748  -5.1736  -5.1734  -4.9875  -4.9872  -4.9867
     2.0179   2.0181   2.0188   2.1094   2.1100   2.1104   4.7199   4.7208
     4.7211   5.0421   5.0423   5.0425   5.1766   5.1771   5.1773   5.5164
     5.5173   5.5174   5.5484   5.5486   5.5487   6.5134   6.5140   6.5152
     7.1070   7.1071   7.1073   7.4342   7.4349   7.4356   7.7770   7.7771
     7.7776   8.0206   8.0213   8.0220   8.3394   8.3397   8.3407   8.6256
     8.6262   8.6271   8.9192   8.9193   8.9204   9.2219   9.2222   9.2224
     9.4152   9.4153   9.4156   9.5835   9.5839   9.5840  10.0343  10.0346
    10.0347  10.1882  10.1884  10.1893  10.3064  10.3068  10.3070  10.8238
    10.8252  10.8254  11.0170  11.0172  11.0179  11.2486  11.2488  11.2500
    11.5490  11.5494  11.5505  14.2727  14.2734  14.2745  14.3998  14.4005
    14.4009  14.4563  14.4566  14.4576  14.7217  14.7221  14.7221  15.1166
    15.1167  15.1177  15.5866  15.5882  15.5883  15.9523  15.9524  15.9530
    16.7726  16.7741  16.7743  16.9900  16.9905  16.9908  17.4165  17.8355

     occupation numbers 
     1.0000   1.0000   1.0000   1.0000   1.0000   1.0000   1.0000   1.0000
     1.0000   1.0000   1.0000   1.0000   1.0000   1.0000   1.0000   1.0000
     1.0000   1.0000   1.0000   1.0000   1.0000   1.0000   1.0000   1.0000
     1.0000   1.0000   1.0000   1.0000   1.0000   1.0000   1.0000   1.0000
     1.0000   1.0000   1.0000   1.0000   1.0000   1.0000   1.0000   1.0000
     1.0000   1.0000   1.0000   1.0000   1.0000   1.0000   1.0000   1.0000
     1.0000   1.0000   1.0000   1.0000   1.0000   1.0000   1.0000   1.0000
     1.0000   1.0000   1.0000   1.0000   1.0000   1.0000   1.0000   1.0000
     1.0000   1.0000   1.0000   1.0000   1.0000   1.0000   1.0000   1.0000
     1.0000   1.0000   1.0000   1.0000   1.0000   1.0000   1.0000   1.0000
     1.0000   1.0000   1.0000   1.0000   1.0000   1.0000   1.0000   1.0000
     1.0000   1.0000   1.0000   1.0000   1.0000   1.0000   1.0000   1.0000
     1.0000   1.0000   1.0000   1.0000   1.0000   1.0000   1.0000   1.0000
     1.0000   1.0000   1.0000   1.0000   1.0000   1.0000   1.0000   1.0000
     1.0000   1.0000   1.0000   1.0000   1.0000   1.0000   1.0000   1.0000
     1.0000   1.0000   1.0000   1.0000   1.0000   1.0000   1.0000   1.0000
     1.0000   1.0000   1.0000   1.0000   1.0000   1.0000   1.0000   1.0000
     1.0000   1.0000   1.0000   1.0000   1.0000   1.0000   1.0000   1.0000
     1.0000   1.0000   1.0000  -0.0000  -0.0000  -0.0000  -0.0000  -0.0000
    -0.0000  -0.0000  -0.0000  -0.0000  -0.0000  -0.0000  -0.0000  -0.0000
    -0.0000  -0.0000  -0.0000  -0.0000  -0.0000  -0.0000  -0.0000  -0.0000
    -0.0000  -0.0000  -0.0000  -0.0000  -0.0000  -0.0000  -0.0000  -0.0000

          k = 0.3333 0.5774-0.2034 ( 10302 PWs)   bands (ev):

   -78.9420 -78.9412 -78.9408 -73.8034 -73.8032 -73.8018 -44.9602 -44.9589
   -44.9588 -44.8859 -44.8859 -44.8853 -44.8853 -44.8847 -44.8847 -39.9512
   -39.9504 -39.9494 -39.8972 -39.8972 -39.8971 -39.8971 -39.8956 -39.8956
   -10.4143 -10.4140 -10.4138 -10.4135 -10.4134 -10.4132 -10.3608 -10.3608
   -10.3606 -10.3581 -10.3581 -10.3580 -10.3263 -10.3261 -10.3261 -10.3257
   -10.3257 -10.3257 -10.3137 -10.3137 -10.3137 -10.3129 -10.3128 -10.3127
   -10.2919 -10.2919 -10.2918 -10.2915 -10.2914 -10.2913  -6.2046  -6.2039
    -6.2020  -6.1286  -6.1283  -6.1262  -5.4558  -5.4544  -5.4542  -5.3618
    -5.3604  -5.3603  -5.0967  -5.0959  -5.0957  -5.0091  -5.0088  -5.0082
     2.0511   2.0512   2.0518   2.0746   2.0753   2.0758   4.7071   4.7079
     4.7082   5.0957   5.0961   5.0962   5.1606   5.1610   5.1613   5.4626
     5.4631   5.4632   5.5858   5.5860   5.5861   6.5015   6.5020   6.5033
     7.1161   7.1165   7.1166   7.3723   7.3725   7.3732   7.8084   7.8084
     7.8093   8.0952   8.0956   8.0963   8.3674   8.3684   8.3694   8.6229
     8.6240   8.6240   8.8022   8.8028   8.8037   9.2015   9.2015   9.2022
     9.3705   9.3706   9.3707   9.7322   9.7322   9.7325  10.0510  10.0510
    10.0513  10.1543  10.1546  10.1551  10.3012  10.3014  10.3018  10.8426
    10.8441  10.8442  10.9670  10.9671  10.9681  11.2482  11.2485  11.2496
    11.5602  11.5606  11.5618  14.2811  14.2816  14.2828  14.3913  14.3924
    14.3929  14.4682  14.4683  14.4697  14.7359  14.7364  14.7365  15.1135
    15.1136  15.1146  15.6336  15.6350  15.6351  15.7730  15.7738  15.7742
    16.9898  16.9913  16.9915  17.0150  17.0162  17.0169  17.5269  17.5294

     occupation numbers 
     1.0000   1.0000   1.0000   1.0000   1.0000   1.0000   1.0000   1.0000
     1.0000   1.0000   1.0000   1.0000   1.0000   1.0000   1.0000   1.0000
     1.0000   1.0000   1.0000   1.0000   1.0000   1.0000   1.0000   1.0000
     1.0000   1.0000   1.0000   1.0000   1.0000   1.0000   1.0000   1.0000
     1.0000   1.0000   1.0000   1.0000   1.0000   1.0000   1.0000   1.0000
     1.0000   1.0000   1.0000   1.0000   1.0000   1.0000   1.0000   1.0000
     1.0000   1.0000   1.0000   1.0000   1.0000   1.0000   1.0000   1.0000
     1.0000   1.0000   1.0000   1.0000   1.0000   1.0000   1.0000   1.0000
     1.0000   1.0000   1.0000   1.0000   1.0000   1.0000   1.0000   1.0000
     1.0000   1.0000   1.0000   1.0000   1.0000   1.0000   1.0000   1.0000
     1.0000   1.0000   1.0000   1.0000   1.0000   1.0000   1.0000   1.0000
     1.0000   1.0000   1.0000   1.0000   1.0000   1.0000   1.0000   1.0000
     1.0000   1.0000   1.0000   1.0000   1.0000   1.0000   1.0000   1.0000
     1.0000   1.0000   1.0000   1.0000   1.0000   1.0000   1.0000   1.0000
     1.0000   1.0000   1.0000   1.0000   1.0000   1.0000   1.0000   1.0000
     1.0000   1.0000   1.0000   1.0000   1.0000   1.0000   1.0000   1.0000
     1.0000   1.0000   1.0000   1.0000   1.0000   1.0000   1.0000   1.0000
     1.0000   1.0000   1.0000   1.0000   1.0000   1.0000   1.0000   1.0000
     1.0000   1.0000   1.0000  -0.0000  -0.0000  -0.0000  -0.0000  -0.0000
    -0.0000  -0.0000  -0.0000  -0.0000  -0.0000  -0.0000  -0.0000  -0.0000
    -0.0000  -0.0000  -0.0000  -0.0000  -0.0000  -0.0000  -0.0000  -0.0000
    -0.0000  -0.0000  -0.0000  -0.0000  -0.0000  -0.0000  -0.0000  -0.0000

     the Fermi energy is    12.4029 ev

!    total energy              =   -3194.35701923 Ry
     estimated scf accuracy    <       0.00000005 Ry
     smearing contrib. (-TS)   =       0.00000000 Ry
     internal energy E=F+TS    =   -3194.35701923 Ry

     The total energy is F=E-TS. E is the sum of the following terms:
     one-electron contribution =   -1255.30208539 Ry
     hartree contribution      =     820.67083229 Ry
     xc contribution           =    -695.95617882 Ry
     ewald contribution        =   -2064.48949514 Ry
     Hubbard energy            =       0.71990784 Ry

     total magnetization       =    -0.00 Bohr mag/cell
     absolute magnetization    =    26.29 Bohr mag/cell

     convergence has been achieved in  42 iterations

     Writing output data file /home/aldair1809/Documentos/QE/4BFO/temp_tipoA/scf/bifeo3.save/

     init_run     :     71.88s CPU     73.07s WALL (       1 calls)
     electrons    :   9810.06s CPU   9945.87s WALL (       1 calls)

     Called by init_run:
     wfcinit      :     67.00s CPU     67.53s WALL (       1 calls)
     wfcinit:atom :      0.06s CPU      0.06s WALL (      12 calls)
     wfcinit:wfcr :     47.39s CPU     47.81s WALL (      12 calls)
     potinit      :      0.93s CPU      1.00s WALL (       1 calls)
     hinit0       :      1.51s CPU      1.53s WALL (       1 calls)

     Called by electrons:
     c_bands      :   8891.70s CPU   8975.18s WALL (      42 calls)
     sum_band     :    803.35s CPU    834.18s WALL (      42 calls)
     v_of_rho     :     14.70s CPU     15.18s WALL (      43 calls)
     v_h          :      0.58s CPU      0.61s WALL (      43 calls)
     v_xc         :     14.11s CPU     14.56s WALL (      43 calls)
     newd         :     97.97s CPU    119.29s WALL (      43 calls)
     mix_rho      :      3.13s CPU      3.23s WALL (      42 calls)

     Called by c_bands:
     init_us_2    :     10.93s CPU     10.97s WALL (    1032 calls)
     ccgdiagg     :   6771.30s CPU   6837.33s WALL (     504 calls)
     wfcrot       :   2157.64s CPU   2175.44s WALL (     504 calls)

     Called by sum_band:
     sum_band:wei :      0.17s CPU      0.17s WALL (      42 calls)
     sum_band:loo :    587.74s CPU    596.16s WALL (      42 calls)
     sum_band:buf :      1.81s CPU      1.82s WALL (     504 calls)
     sum_band:ini :      5.11s CPU      5.12s WALL (     504 calls)
     sum_band:cal :    419.87s CPU    420.84s WALL (     504 calls)
     sum_band:bec :      2.49s CPU      2.50s WALL (     504 calls)
     addusdens    :    170.59s CPU    192.74s WALL (      42 calls)
     addusd:skk   :      0.43s CPU      0.46s WALL (     168 calls)
     addusd:dgemm :     99.54s CPU    117.87s WALL (     336 calls)
     addusd:qvan2 :     69.31s CPU     69.35s WALL (     336 calls)

     Called by *cgdiagg:
     h_psi        :   4260.45s CPU   4327.54s WALL (  210632 calls)
     s_psi        :   2290.13s CPU   2297.43s WALL (  420772 calls)

     Called by h_psi:
     h_psi:calbec :   1450.76s CPU   1463.50s WALL (  210632 calls)
     vloc_psi     :   1061.07s CPU   1110.30s WALL (  210632 calls)
     add_vuspsi   :   1349.88s CPU   1353.04s WALL (  210632 calls)
     vhpsi        :    390.83s CPU    393.22s WALL (  210632 calls)
     hs_1psi      :   3959.18s CPU   4013.42s WALL (  210128 calls)
     s_1psi       :   1956.27s CPU   1964.16s WALL (  210128 calls)

     General routines
     calbec       :   3221.08s CPU   3242.26s WALL (  632412 calls)
     fft          :     11.16s CPU     11.84s WALL (    1069 calls)
     ffts         :      0.50s CPU      0.53s WALL (     170 calls)
     fftw         :   1095.37s CPU   1149.30s WALL (  687040 calls)
     interpolate  :      1.25s CPU      1.31s WALL (      86 calls)
     davcio       :      0.00s CPU      0.25s WALL (      12 calls)

     Parallel routines
     fft_scatt_xy :    123.76s CPU    131.81s WALL (  688279 calls)
     fft_scatt_yz :    305.90s CPU    332.10s WALL (  688279 calls)

     Hubbard U routines
     new_ns       :     24.73s CPU     24.80s WALL (      42 calls)
     new_ns       :     24.73s CPU     24.80s WALL (      42 calls)
     vhpsi        :    390.83s CPU    393.22s WALL (  210632 calls)

     PWSCF        :      2h44m CPU      2h47m WALL


   This run was terminated on:  10:19:26  16Dec2024            

=------------------------------------------------------------------------------=
   JOB DONE.
=------------------------------------------------------------------------------=
