
     Program PWSCF v.6.7MaX starts on 15Dec2024 at 16:53:31 

     This program is part of the open-source Quantum ESPRESSO suite
     for quantum simulation of materials; please cite
         "P. Giannozzi et al., J. Phys.:Condens. Matter 21 395502 (2009);
         "P. Giannozzi et al., J. Phys.:Condens. Matter 29 465901 (2017);
          URL http://www.quantum-espresso.org", 
     in publications or presentations arising from this work. More details at
     http://www.quantum-espresso.org/quote

     Parallel version (MPI), running on     6 processors

     MPI processes distributed on     1 nodes
     R & G space division:  proc/nbgrp/npool/nimage =       6
     Waiting for input...
     Reading input from standard input

     Current dimensions of program PWSCF are:
     Max number of different atomic species (ntypx) = 10
     Max number of k-points (npk) =  40000
     Max angular momentum in pseudopotentials (lmaxx) =  3
     Message from routine iosys:
     wrong startingpot: use default (1)

     Subspace diagonalization in iterative solution of the eigenvalue problem:
     one sub-group per band group will be used
     scalapack distributed-memory algorithm (size of sub-group:  2*  2 procs)


     Parallelization info
     --------------------
     sticks:   dense  smooth     PW     G-vecs:    dense   smooth      PW
     Min         401     200     57                39339    13882    2114
     Max         402     201     59                39350    13889    2121
     Sum        2407    1201    349               236061    83311   12703



     bravais-lattice index     =            4
     lattice parameter (alat)  =      10.4531  a.u.
     unit-cell volume          =    2440.6662 (a.u.)^3
     number of atoms/cell      =           30
     number of atomic types    =            4
     number of electrons       =       294.00
     number of Kohn-Sham states=          176
     kinetic-energy cutoff     =      40.0000  Ry
     charge density cutoff     =     320.0000  Ry
     scf convergence threshold =      1.0E-07
     mixing beta               =       0.4000
     number of iterations used =            8  plain     mixing
     Exchange-correlation=  SLA  PW   PBX  PBC
                           (   1   4   3   4   0   0   0)

     celldm(1)=  10.453102  celldm(2)=   0.000000  celldm(3)=   2.467415
     celldm(4)=   0.000000  celldm(5)=   0.000000  celldm(6)=   0.000000

     crystal axes: (cart. coord. in units of alat)
               a(1) = (   1.000000   0.000000   0.000000 )  
               a(2) = (  -0.500000   0.866025   0.000000 )  
               a(3) = (   0.000000   0.000000   2.467415 )  

     reciprocal axes: (cart. coord. in units 2 pi/alat)
               b(1) = (  1.000000  0.577350 -0.000000 )  
               b(2) = (  0.000000  1.154701  0.000000 )  
               b(3) = (  0.000000 -0.000000  0.405282 )  


     PseudoPot. # 1 for O  read from file:
     /home/aldair1809/Programas/QE/q-e-qe-7.3/pseudo/o_pbe_v1.2.uspp.F.UPF
     MD5 check sum: 734c27235a0248c51dbae37a1fbe46ec
     Pseudo is Ultrasoft + core correction, Zval =  6.0
     Generated by new atomic code, or converted to UPF format
     Using radial grid of  737 points,  5 beta functions with: 
                l(1) =   0
                l(2) =   0
                l(3) =   1
                l(4) =   1
                l(5) =   2
     Q(r) pseudized with  8 coefficients,  rinner =    0.900   0.900   0.900
                                                       0.900   0.900

     PseudoPot. # 2 for Bi read from file:
     /home/aldair1809/Programas/QE/q-e-qe-7.3/pseudo/bi_pbe_v1.uspp.F.UPF
     MD5 check sum: cceb9f28ec65b6d7ff33140f5b0b1758
     Pseudo is Ultrasoft + core correction, Zval = 15.0
     Generated by new atomic code, or converted to UPF format
     Using radial grid of  899 points,  6 beta functions with: 
                l(1) =   0
                l(2) =   0
                l(3) =   1
                l(4) =   1
                l(5) =   2
                l(6) =   2
     Q(r) pseudized with  6 coefficients,  rinner =    1.000   1.000   1.000
                                                       1.000   1.000

     PseudoPot. # 3 for Fe read from file:
     /home/aldair1809/Programas/QE/q-e-qe-7.3/pseudo/fe_pbe_v1.5.uspp.F.UPF
     MD5 check sum: a130daea23fe5165f5d574ae7f82ed95
     Pseudo is Ultrasoft + core correction, Zval = 16.0
     Generated by new atomic code, or converted to UPF format
     Using radial grid of  861 points,  6 beta functions with: 
                l(1) =   0
                l(2) =   0
                l(3) =   1
                l(4) =   1
                l(5) =   2
                l(6) =   2
     Q(r) pseudized with  8 coefficients,  rinner =    1.000   1.000   1.000
                                                       1.000   1.000

     PseudoPot. # 4 for Fe read from file:
     /home/aldair1809/Programas/QE/q-e-qe-7.3/pseudo/fe_pbe_v1.5.uspp.F.UPF
     MD5 check sum: a130daea23fe5165f5d574ae7f82ed95
     Pseudo is Ultrasoft + core correction, Zval = 16.0
     Generated by new atomic code, or converted to UPF format
     Using radial grid of  861 points,  6 beta functions with: 
                l(1) =   0
                l(2) =   0
                l(3) =   1
                l(4) =   1
                l(5) =   2
                l(6) =   2
     Q(r) pseudized with  8 coefficients,  rinner =    1.000   1.000   1.000
                                                       1.000   1.000

     atomic species   valence    mass     pseudopotential
        O              6.00    15.99940     O ( 1.00)
        Bi            15.00   208.98040     Bi( 1.00)
        Fe1           16.00    55.84500     Fe( 1.00)
        Fe2           16.00    55.84500     Fe( 1.00)

     Starting magnetic structure 
     atomic species   magnetization
        O            0.000
        Bi           0.000
        Fe1         -0.800
        Fe2          0.800


     Simplified LDA+U calculation (l_max = 2) with parameters (eV):
     atomic species    L          U    alpha       J0     beta
        Fe1            2     4.1000   0.0000   0.0000   0.0000
        Fe2            2     4.1000   0.0000   0.0000   0.0000



      3 Sym. Ops. (no inversion) found


                                    s                        frac. trans.

      isym =  1     identity                                     

 cryst.   s( 1) = (     1          0          0      )
                  (     0          1          0      )
                  (     0          0          1      )

 cart.    s( 1) = (  1.0000000  0.0000000  0.0000000 )
                  (  0.0000000  1.0000000  0.0000000 )
                  (  0.0000000  0.0000000  1.0000000 )


      isym =  2     120 deg rotation - cryst. axis [0,0,1]       

 cryst.   s( 2) = (     0          1          0      )
                  (    -1         -1          0      )
                  (     0          0          1      )

 cart.    s( 2) = ( -0.5000000 -0.8660254  0.0000000 )
                  (  0.8660254 -0.5000000  0.0000000 )
                  (  0.0000000  0.0000000  1.0000000 )


      isym =  3     120 deg rotation - cryst. axis [0,0,-1]      

 cryst.   s( 3) = (    -1         -1          0      )
                  (     1          0          0      )
                  (     0          0          1      )

 cart.    s( 3) = ( -0.5000000  0.8660254  0.0000000 )
                  ( -0.8660254 -0.5000000  0.0000000 )
                  (  0.0000000  0.0000000  1.0000000 )


     point group C_3 (3)    
     there are  3 classes
     the character table:

       E     C3    C3^2 
A      1.00  1.00  1.00
E      1.00 -0.50 -0.50
E*     1.00 -0.50 -0.50
     imaginary part
A      0.00  0.00  0.00
E      0.00  0.87 -0.87
E*     0.00 -0.87  0.87

     the symmetry operations in each class and the name of the first element:

     E        1
          identity                                               
     C3       2
          120 deg rotation - cryst. axis [0,0,1]                 
     C3^2     3
          120 deg rotation - cryst. axis [0,0,-1]                

   Cartesian axes

     site n.     atom                  positions (alat units)
         1           Fe1 tau(   1) = (   0.0000000   0.0000000   1.9173194  )
         2           Fe1 tau(   2) = (  -0.0000005   0.5773506   2.3408318  )
         3           Fe1 tau(   3) = (   0.5000005   0.2886748   1.4987656  )
         4           Fe2 tau(   4) = (   0.5000005   0.2886748   0.2650306  )
         5           Fe2 tau(   5) = (   0.0000000   0.0000000   0.6836385  )
         6           Fe2 tau(   6) = (  -0.0000005   0.5773506   1.1071829  )
         7           Bi  tau(   7) = (   0.5000005   0.2886748   2.0704508  )
         8           Bi  tau(   8) = (  -0.0000005   0.5773506   1.6683657  )
         9           Bi  tau(   9) = (  -0.0000005   0.5773506   0.4345959  )
        10           Bi  tau(  10) = (   0.0000000   0.0000000   0.0112133  )
        11           Bi  tau(  11) = (   0.0000000   0.0000000   1.2449306  )
        12           Bi  tau(  12) = (   0.5000005   0.2886748   0.8366940  )
        13           O   tau(  13) = (  -0.3015234   0.6617768   2.1713309  )
        14           O   tau(  14) = (   0.0776467   0.2740092   2.1713309  )
        15           O   tau(  15) = (   0.2238783   0.7962639   2.1713309  )
        16           O   tau(  16) = (   0.4195843   0.5622547   1.7587968  )
        17           O   tau(  17) = (   0.3032805   0.0822442   1.7587968  )
        18           O   tau(  18) = (   0.7771337   0.2215274   1.7587968  )
        19           O   tau(  19) = (   0.6967279   0.0822438   0.5250654  )
        20           O   tau(  20) = (   0.5804103   0.5622631   0.5250654  )
        21           O   tau(  21) = (   0.2228602   0.2215194   0.5250654  )
        22           O   tau(  22) = (  -0.0757596   0.8510068   0.1130324  )
        23           O   tau(  23) = (  -0.1991137   0.3749123   0.1130324  )
        24           O   tau(  24) = (   0.2748733   0.5061317   0.1130324  )
        25           O   tau(  25) = (   0.1991050   0.3749017   1.3467955  )
        26           O   tau(  26) = (   0.0757731   0.8510045   1.3467955  )
        27           O   tau(  27) = (  -0.2748781   0.5061446   1.3467955  )
        28           O   tau(  28) = (  -0.0776631   0.2740052   0.9376559  )
        29           O   tau(  29) = (   0.3015366   0.6617637   0.9376559  )
        30           O   tau(  30) = (  -0.2238720   0.7962811   0.9376559  )

   Crystallographic axes

     site n.     atom                  positions (cryst. coord.)
         1           Fe1 tau(   1) = (  0.0000000  0.0000000  0.7770559  )
         2           Fe1 tau(   2) = (  0.3333330  0.6666670  0.9486980  )
         3           Fe1 tau(   3) = (  0.6666670  0.3333330  0.6074234  )
         4           Fe2 tau(   4) = (  0.6666670  0.3333330  0.1074122  )
         5           Fe2 tau(   5) = (  0.0000000  0.0000000  0.2770667  )
         6           Fe2 tau(   6) = (  0.3333330  0.6666670  0.4487218  )
         7           Bi  tau(   7) = (  0.6666670  0.3333330  0.8391174  )
         8           Bi  tau(   8) = (  0.3333330  0.6666670  0.6761593  )
         9           Bi  tau(   9) = (  0.3333330  0.6666670  0.1761341  )
        10           Bi  tau(  10) = (  0.0000000  0.0000000  0.0045446  )
        11           Bi  tau(  11) = (  0.0000000  0.0000000  0.5045485  )
        12           Bi  tau(  12) = (  0.6666670  0.3333330  0.3390974  )
        13           O   tau(  13) = (  0.0805536  0.7641541  0.8800023  )
        14           O   tau(  14) = (  0.2358459  0.3163985  0.8800023  )
        15           O   tau(  15) = (  0.6836015  0.9194464  0.8800023  )
        16           O   tau(  16) = (  0.7442022  0.6492358  0.7128095  )
        17           O   tau(  17) = (  0.3507642  0.0949674  0.7128095  )
        18           O   tau(  18) = (  0.9050326  0.2557978  0.7128095  )
        19           O   tau(  19) = (  0.7442114  0.0949669  0.2127998  )
        20           O   tau(  20) = (  0.9050331  0.6492455  0.2127998  )
        21           O   tau(  21) = (  0.3507545  0.2557886  0.2127998  )
        22           O   tau(  22) = (  0.4155694  0.9826580  0.0458101  )
        23           O   tau(  23) = (  0.0173420  0.4329115  0.0458101  )
        24           O   tau(  24) = (  0.5670885  0.5844306  0.0458101  )
        25           O   tau(  25) = (  0.4155546  0.4328992  0.5458326  )
        26           O   tau(  26) = (  0.5671008  0.9826554  0.5458326  )
        27           O   tau(  27) = (  0.0173446  0.5844454  0.5458326  )
        28           O   tau(  28) = (  0.0805338  0.3163939  0.3800155  )
        29           O   tau(  29) = (  0.6836061  0.7641389  0.3800155  )
        30           O   tau(  30) = (  0.2358611  0.9194662  0.3800155  )

     number of k points=     6  Methfessel-Paxton smearing, width (Ry)=  0.0100
                       cart. coord. in units 2pi/alat
        k(    1) = (   0.0000000   0.0000000   0.0000000), wk =   0.0555556
        k(    2) = (   0.0000000   0.0000000  -0.2026412), wk =   0.0555556
        k(    3) = (   0.0000000   0.3849002   0.0000000), wk =   0.3333333
        k(    4) = (   0.0000000   0.3849002  -0.2026412), wk =   0.3333333
        k(    5) = (   0.3333333   0.5773503   0.0000000), wk =   0.1111111
        k(    6) = (   0.3333333   0.5773503  -0.2026412), wk =   0.1111111

                       cryst. coord.
        k(    1) = (   0.0000000   0.0000000   0.0000000), wk =   0.0555556
        k(    2) = (   0.0000000   0.0000000  -0.5000000), wk =   0.0555556
        k(    3) = (   0.0000000   0.3333333   0.0000000), wk =   0.3333333
        k(    4) = (   0.0000000   0.3333333  -0.5000000), wk =   0.3333333
        k(    5) = (   0.3333333   0.3333333   0.0000000), wk =   0.1111111
        k(    6) = (   0.3333333   0.3333333  -0.5000000), wk =   0.1111111

     Dense  grid:   236061 G-vectors     FFT dimensions: (  60,  60, 150)

     Smooth grid:    83311 G-vectors     FFT dimensions: (  45,  45, 108)

     Dynamical RAM for                 wfc:       4.66 MB

     Dynamical RAM for     wfc (w. buffer):      60.64 MB

     Dynamical RAM for             U proj.:       0.80 MB

     Dynamical RAM for  U proj. (w. buff.):      10.34 MB

     Dynamical RAM for           str. fact:       2.40 MB

     Dynamical RAM for           local pot:       0.00 MB

     Dynamical RAM for          nlocal pot:      11.93 MB

     Dynamical RAM for                qrad:       5.74 MB

     Dynamical RAM for          rho,v,vnew:       7.72 MB

     Dynamical RAM for               rhoin:       2.57 MB

     Dynamical RAM for            rho*nmix:      19.21 MB

     Dynamical RAM for           G-vectors:       2.36 MB

     Dynamical RAM for          h,s,v(r/c):       0.35 MB

     Dynamical RAM for          <psi|beta>:       1.21 MB

     Dynamical RAM for      wfcinit/wfcrot:      11.77 MB

     Dynamical RAM for           addusdens:     123.07 MB

     Estimated static dynamical RAM per process >     130.04 MB

     Estimated max dynamical RAM per process >     253.11 MB

     Estimated total dynamical RAM >       1.48 GB

     Check: negative core charge=   -0.000014
     Generating pointlists ...
     new r_m :   0.1435 (alat units)  1.5003 (a.u.) for type    1
     new r_m :   0.1728 (alat units)  1.8065 (a.u.) for type    2
     new r_m :   0.1435 (alat units)  1.5003 (a.u.) for type    3
     new r_m :   0.1435 (alat units)  1.5003 (a.u.) for type    4

     Initial potential from superposition of free atoms

     starting charge  281.99969, renormalised to  294.00000

     negative rho (up, down):  1.268E-01 1.268E-01
 --- in v_hubbard ---
Hubbard energy    0.7232
 -------
     Number of +U iterations with fixed ns =  0
     Starting occupations:
 --- enter write_ns ---
 LDA+U parameters:
U( 3)     =  4.10000000
U( 4)     =  4.10000000
atom    1   Tr[ns(na)] (up, down, total) =   1.00000  5.00000  6.00000
   spin  1
    eigenvalues: 
  0.200  0.200  0.200  0.200  0.200
    eigenvectors:
  1.000  0.000  0.000  0.000  0.000
  0.000  1.000  0.000  0.000  0.000
  0.000  0.000  1.000  0.000  0.000
  0.000  0.000  0.000  1.000  0.000
  0.000  0.000  0.000  0.000  1.000
    occupations:
  0.200  0.000  0.000  0.000  0.000
  0.000  0.200  0.000  0.000  0.000
  0.000  0.000  0.200  0.000  0.000
  0.000  0.000  0.000  0.200  0.000
  0.000  0.000  0.000  0.000  0.200
   spin  2
    eigenvalues: 
  1.000  1.000  1.000  1.000  1.000
    eigenvectors:
  1.000  0.000  0.000  0.000  0.000
  0.000  1.000  0.000  0.000  0.000
  0.000  0.000  1.000  0.000  0.000
  0.000  0.000  0.000  1.000  0.000
  0.000  0.000  0.000  0.000  1.000
    occupations:
  1.000  0.000  0.000  0.000  0.000
  0.000  1.000  0.000  0.000  0.000
  0.000  0.000  1.000  0.000  0.000
  0.000  0.000  0.000  1.000  0.000
  0.000  0.000  0.000  0.000  1.000
atomic mag. moment =  -4.00000
atom    2   Tr[ns(na)] (up, down, total) =   1.00000  5.00000  6.00000
   spin  1
    eigenvalues: 
  0.200  0.200  0.200  0.200  0.200
    eigenvectors:
  1.000  0.000  0.000  0.000  0.000
  0.000  1.000  0.000  0.000  0.000
  0.000  0.000  1.000  0.000  0.000
  0.000  0.000  0.000  1.000  0.000
  0.000  0.000  0.000  0.000  1.000
    occupations:
  0.200  0.000  0.000  0.000  0.000
  0.000  0.200  0.000  0.000  0.000
  0.000  0.000  0.200  0.000  0.000
  0.000  0.000  0.000  0.200  0.000
  0.000  0.000  0.000  0.000  0.200
   spin  2
    eigenvalues: 
  1.000  1.000  1.000  1.000  1.000
    eigenvectors:
  1.000  0.000  0.000  0.000  0.000
  0.000  1.000  0.000  0.000  0.000
  0.000  0.000  1.000  0.000  0.000
  0.000  0.000  0.000  1.000  0.000
  0.000  0.000  0.000  0.000  1.000
    occupations:
  1.000  0.000  0.000  0.000  0.000
  0.000  1.000  0.000  0.000  0.000
  0.000  0.000  1.000  0.000  0.000
  0.000  0.000  0.000  1.000  0.000
  0.000  0.000  0.000  0.000  1.000
atomic mag. moment =  -4.00000
atom    3   Tr[ns(na)] (up, down, total) =   1.00000  5.00000  6.00000
   spin  1
    eigenvalues: 
  0.200  0.200  0.200  0.200  0.200
    eigenvectors:
  1.000  0.000  0.000  0.000  0.000
  0.000  1.000  0.000  0.000  0.000
  0.000  0.000  1.000  0.000  0.000
  0.000  0.000  0.000  1.000  0.000
  0.000  0.000  0.000  0.000  1.000
    occupations:
  0.200  0.000  0.000  0.000  0.000
  0.000  0.200  0.000  0.000  0.000
  0.000  0.000  0.200  0.000  0.000
  0.000  0.000  0.000  0.200  0.000
  0.000  0.000  0.000  0.000  0.200
   spin  2
    eigenvalues: 
  1.000  1.000  1.000  1.000  1.000
    eigenvectors:
  1.000  0.000  0.000  0.000  0.000
  0.000  1.000  0.000  0.000  0.000
  0.000  0.000  1.000  0.000  0.000
  0.000  0.000  0.000  1.000  0.000
  0.000  0.000  0.000  0.000  1.000
    occupations:
  1.000  0.000  0.000  0.000  0.000
  0.000  1.000  0.000  0.000  0.000
  0.000  0.000  1.000  0.000  0.000
  0.000  0.000  0.000  1.000  0.000
  0.000  0.000  0.000  0.000  1.000
atomic mag. moment =  -4.00000
atom    4   Tr[ns(na)] (up, down, total) =   5.00000  1.00000  6.00000
   spin  1
    eigenvalues: 
  1.000  1.000  1.000  1.000  1.000
    eigenvectors:
  1.000  0.000  0.000  0.000  0.000
  0.000  1.000  0.000  0.000  0.000
  0.000  0.000  1.000  0.000  0.000
  0.000  0.000  0.000  1.000  0.000
  0.000  0.000  0.000  0.000  1.000
    occupations:
  1.000  0.000  0.000  0.000  0.000
  0.000  1.000  0.000  0.000  0.000
  0.000  0.000  1.000  0.000  0.000
  0.000  0.000  0.000  1.000  0.000
  0.000  0.000  0.000  0.000  1.000
   spin  2
    eigenvalues: 
  0.200  0.200  0.200  0.200  0.200
    eigenvectors:
  1.000  0.000  0.000  0.000  0.000
  0.000  1.000  0.000  0.000  0.000
  0.000  0.000  1.000  0.000  0.000
  0.000  0.000  0.000  1.000  0.000
  0.000  0.000  0.000  0.000  1.000
    occupations:
  0.200  0.000  0.000  0.000  0.000
  0.000  0.200  0.000  0.000  0.000
  0.000  0.000  0.200  0.000  0.000
  0.000  0.000  0.000  0.200  0.000
  0.000  0.000  0.000  0.000  0.200
atomic mag. moment =   4.00000
atom    5   Tr[ns(na)] (up, down, total) =   5.00000  1.00000  6.00000
   spin  1
    eigenvalues: 
  1.000  1.000  1.000  1.000  1.000
    eigenvectors:
  1.000  0.000  0.000  0.000  0.000
  0.000  1.000  0.000  0.000  0.000
  0.000  0.000  1.000  0.000  0.000
  0.000  0.000  0.000  1.000  0.000
  0.000  0.000  0.000  0.000  1.000
    occupations:
  1.000  0.000  0.000  0.000  0.000
  0.000  1.000  0.000  0.000  0.000
  0.000  0.000  1.000  0.000  0.000
  0.000  0.000  0.000  1.000  0.000
  0.000  0.000  0.000  0.000  1.000
   spin  2
    eigenvalues: 
  0.200  0.200  0.200  0.200  0.200
    eigenvectors:
  1.000  0.000  0.000  0.000  0.000
  0.000  1.000  0.000  0.000  0.000
  0.000  0.000  1.000  0.000  0.000
  0.000  0.000  0.000  1.000  0.000
  0.000  0.000  0.000  0.000  1.000
    occupations:
  0.200  0.000  0.000  0.000  0.000
  0.000  0.200  0.000  0.000  0.000
  0.000  0.000  0.200  0.000  0.000
  0.000  0.000  0.000  0.200  0.000
  0.000  0.000  0.000  0.000  0.200
atomic mag. moment =   4.00000
atom    6   Tr[ns(na)] (up, down, total) =   5.00000  1.00000  6.00000
   spin  1
    eigenvalues: 
  1.000  1.000  1.000  1.000  1.000
    eigenvectors:
  1.000  0.000  0.000  0.000  0.000
  0.000  1.000  0.000  0.000  0.000
  0.000  0.000  1.000  0.000  0.000
  0.000  0.000  0.000  1.000  0.000
  0.000  0.000  0.000  0.000  1.000
    occupations:
  1.000  0.000  0.000  0.000  0.000
  0.000  1.000  0.000  0.000  0.000
  0.000  0.000  1.000  0.000  0.000
  0.000  0.000  0.000  1.000  0.000
  0.000  0.000  0.000  0.000  1.000
   spin  2
    eigenvalues: 
  0.200  0.200  0.200  0.200  0.200
    eigenvectors:
  1.000  0.000  0.000  0.000  0.000
  0.000  1.000  0.000  0.000  0.000
  0.000  0.000  1.000  0.000  0.000
  0.000  0.000  0.000  1.000  0.000
  0.000  0.000  0.000  0.000  1.000
    occupations:
  0.200  0.000  0.000  0.000  0.000
  0.000  0.200  0.000  0.000  0.000
  0.000  0.000  0.200  0.000  0.000
  0.000  0.000  0.000  0.200  0.000
  0.000  0.000  0.000  0.000  0.200
atomic mag. moment =   4.00000
N of occupied +U levels =   36.000000
 --- exit write_ns ---
 Atomic wfc used for LDA+U Projector are NOT orthogonalized
     Starting wfcs are  204 randomized atomic wfcs

     total cpu time spent up to now is       73.4 secs

     Self-consistent Calculation

     iteration #  1     ecut=    40.00 Ry     beta= 0.40
     CG style diagonalization
     ethr =  1.00E-02,  avg # of iterations =  2.4
 --- enter write_ns ---
 LDA+U parameters:
U( 3)     =  4.10000000
U( 4)     =  4.10000000
atom    1   Tr[ns(na)] (up, down, total) =   0.23012  4.97709  5.20721
   spin  1
    eigenvalues: 
  0.024  0.024  0.025  0.078  0.078
    eigenvectors:
  0.000  0.000  1.000  0.000  0.000
  0.033  0.371  0.000  0.003  0.593
  0.371  0.033  0.000  0.593  0.003
  0.132  0.464  0.000  0.172  0.233
  0.464  0.132  0.000  0.233  0.172
    occupations:
  0.025 -0.000 -0.000 -0.000 -0.000
 -0.000  0.056 -0.000  0.019  0.019
 -0.000 -0.000  0.056  0.019 -0.019
 -0.000  0.019  0.019  0.046  0.000
 -0.000  0.019 -0.019  0.000  0.046
   spin  2
    eigenvalues: 
  0.994  0.995  0.995  0.997  0.997
    eigenvectors:
  1.000  0.000  0.000  0.000  0.000
  0.000  0.014  0.168  0.008  0.810
  0.000  0.168  0.014  0.810  0.008
  0.000  0.142  0.675  0.096  0.086
  0.000  0.675  0.142  0.086  0.096
    occupations:
  0.994 -0.000 -0.000 -0.000 -0.000
 -0.000  0.996 -0.000  0.001  0.000
 -0.000 -0.000  0.996  0.000 -0.001
 -0.000  0.001  0.000  0.995  0.000
 -0.000  0.000 -0.001  0.000  0.995
atomic mag. moment =  -4.74697
atom    2   Tr[ns(na)] (up, down, total) =   0.23568  4.97866  5.21434
   spin  1
    eigenvalues: 
  0.024  0.024  0.025  0.081  0.081
    eigenvectors:
  0.000  0.000  1.000  0.000  0.000
  0.288  0.087  0.000  0.423  0.203
  0.087  0.288  0.000  0.203  0.423
  0.043  0.583  0.000  0.010  0.364
  0.583  0.043  0.000  0.364  0.010
    occupations:
  0.025 -0.000 -0.000 -0.000 -0.000
 -0.000  0.060 -0.000 -0.019  0.020
 -0.000 -0.000  0.060  0.020  0.019
 -0.000 -0.019  0.020  0.045  0.000
 -0.000  0.020  0.019  0.000  0.045
   spin  2
    eigenvalues: 
  0.994  0.995  0.995  0.998  0.998
    eigenvectors:
  1.000  0.000  0.000  0.000  0.000
  0.000  0.207  0.077  0.278  0.439
  0.000  0.077  0.207  0.439  0.278
  0.000  0.067  0.649  0.000  0.283
  0.000  0.649  0.067  0.283  0.000
    occupations:
  0.994 -0.000 -0.000 -0.000 -0.000
 -0.000  0.997 -0.000 -0.001  0.001
 -0.000 -0.000  0.997  0.001  0.001
 -0.000 -0.001  0.001  0.995  0.000
 -0.000  0.001  0.001  0.000  0.995
atomic mag. moment =  -4.74298
atom    3   Tr[ns(na)] (up, down, total) =   0.23385  4.97635  5.21020
   spin  1
    eigenvalues: 
  0.025  0.025  0.026  0.079  0.079
    eigenvectors:
  0.000  0.000  1.000  0.000  0.000
  0.322  0.109  0.000  0.441  0.128
  0.109  0.322  0.000  0.128  0.441
  0.031  0.538  0.000  0.030  0.400
  0.538  0.031  0.000  0.400  0.030
    occupations:
  0.026 -0.000 -0.000 -0.000 -0.000
 -0.000  0.056 -0.000 -0.018  0.019
 -0.000 -0.000  0.056  0.019  0.018
 -0.000 -0.018  0.019  0.048  0.000
 -0.000  0.019  0.018  0.000  0.048
   spin  2
    eigenvalues: 
  0.994  0.995  0.995  0.997  0.997
    eigenvectors:
  1.000  0.000  0.000  0.000  0.000
  0.000  0.100  0.050  0.125  0.725
  0.000  0.050  0.100  0.725  0.125
  0.000  0.115  0.735  0.005  0.145
  0.000  0.735  0.115  0.145  0.005
    occupations:
  0.994 -0.000 -0.000 -0.000 -0.000
 -0.000  0.996 -0.000 -0.001  0.000
 -0.000 -0.000  0.996  0.000  0.001
 -0.000 -0.001  0.000  0.995  0.000
 -0.000  0.000  0.001  0.000  0.995
atomic mag. moment =  -4.74250
atom    4   Tr[ns(na)] (up, down, total) =   4.97629  0.23398  5.21027
   spin  1
    eigenvalues: 
  0.994  0.995  0.995  0.997  0.997
    eigenvectors:
  1.000  0.000  0.000  0.000  0.000
  0.000  0.004  0.153  0.021  0.822
  0.000  0.153  0.004  0.822  0.021
  0.000  0.148  0.696  0.072  0.085
  0.000  0.696  0.148  0.085  0.072
    occupations:
  0.994 -0.000 -0.000 -0.000 -0.000
 -0.000  0.996 -0.000  0.001  0.000
 -0.000 -0.000  0.996  0.000 -0.001
 -0.000  0.001  0.000  0.995  0.000
 -0.000  0.000 -0.001  0.000  0.995
   spin  2
    eigenvalues: 
  0.025  0.025  0.026  0.079  0.079
    eigenvectors:
  0.000  0.000  1.000  0.000  0.000
  0.039  0.392  0.000  0.006  0.563
  0.392  0.039  0.000  0.563  0.006
  0.132  0.437  0.000  0.181  0.250
  0.437  0.132  0.000  0.250  0.181
    occupations:
  0.026 -0.000 -0.000 -0.000 -0.000
 -0.000  0.056 -0.000  0.018  0.019
 -0.000 -0.000  0.056  0.019 -0.018
 -0.000  0.018  0.019  0.048  0.000
 -0.000  0.019 -0.018  0.000  0.048
atomic mag. moment =   4.74230
atom    5   Tr[ns(na)] (up, down, total) =   4.97710  0.23022  5.20732
   spin  1
    eigenvalues: 
  0.994  0.995  0.995  0.997  0.997
    eigenvectors:
  1.000  0.000  0.000  0.000  0.000
  0.000  0.138  0.041  0.144  0.677
  0.000  0.041  0.138  0.677  0.144
  0.000  0.099  0.722  0.014  0.165
  0.000  0.722  0.099  0.165  0.014
    occupations:
  0.994 -0.000 -0.000 -0.000 -0.000
 -0.000  0.996 -0.000 -0.001  0.000
 -0.000 -0.000  0.996  0.000  0.001
 -0.000 -0.001  0.000  0.995  0.000
 -0.000  0.000  0.001  0.000  0.995
   spin  2
    eigenvalues: 
  0.024  0.024  0.025  0.078  0.078
    eigenvectors:
  0.000  0.000  1.000  0.000  0.000
  0.298  0.107  0.000  0.423  0.172
  0.107  0.298  0.000  0.172  0.423
  0.036  0.559  0.000  0.019  0.385
  0.559  0.036  0.000  0.385  0.019
    occupations:
  0.025 -0.000 -0.000 -0.000 -0.000
 -0.000  0.056 -0.000 -0.019  0.019
 -0.000 -0.000  0.056  0.019  0.019
 -0.000 -0.019  0.019  0.046  0.000
 -0.000  0.019  0.019  0.000  0.046
atomic mag. moment =   4.74687
atom    6   Tr[ns(na)] (up, down, total) =   4.97871  0.23556  5.21427
   spin  1
    eigenvalues: 
  0.994  0.995  0.995  0.998  0.998
    eigenvectors:
  1.000  0.000  0.000  0.000  0.000
  0.000  0.019  0.269  0.001  0.711
  0.000  0.269  0.019  0.711  0.001
  0.000  0.133  0.579  0.131  0.157
  0.000  0.579  0.133  0.157  0.131
    occupations:
  0.994 -0.000 -0.000 -0.000 -0.000
 -0.000  0.997 -0.000  0.001  0.001
 -0.000 -0.000  0.997  0.001 -0.001
 -0.000  0.001  0.001  0.996  0.000
 -0.000  0.001 -0.001  0.000  0.996
   spin  2
    eigenvalues: 
  0.024  0.024  0.025  0.081  0.081
    eigenvectors:
  0.000  0.000  1.000  0.000  0.000
  0.038  0.338  0.000  0.003  0.622
  0.338  0.038  0.000  0.622  0.003
  0.132  0.492  0.000  0.169  0.207
  0.492  0.132  0.000  0.207  0.169
    occupations:
  0.025 -0.000 -0.000 -0.000 -0.000
 -0.000  0.060 -0.000  0.019  0.020
 -0.000 -0.000  0.060  0.020 -0.019
 -0.000  0.019  0.020  0.046  0.000
 -0.000  0.020 -0.019  0.000  0.046
atomic mag. moment =   4.74314
N of occupied +U levels =   31.263609
 --- exit write_ns ---

     negative rho (up, down):  1.183E-01 1.183E-01
 --- in v_hubbard ---
Hubbard energy    0.2181
 -------

     total cpu time spent up to now is      219.7 secs

     total energy              =   -3188.08584911 Ry
     estimated scf accuracy    <      22.63682370 Ry

     total magnetization       =     0.00 Bohr mag/cell
     absolute magnetization    =    30.61 Bohr mag/cell

     iteration #  2     ecut=    40.00 Ry     beta= 0.40
     CG style diagonalization
     ethr =  7.70E-03,  avg # of iterations =  3.5
 --- enter write_ns ---
 LDA+U parameters:
U( 3)     =  4.10000000
U( 4)     =  4.10000000
atom    1   Tr[ns(na)] (up, down, total) =   0.55545  5.00147  5.55691
   spin  1
    eigenvalues: 
  0.075  0.075  0.078  0.164  0.164
    eigenvectors:
  0.000  0.000  1.000  0.000  0.000
  0.036  0.387  0.000  0.005  0.572
  0.387  0.036  0.000  0.572  0.005
  0.134  0.443  0.000  0.178  0.245
  0.443  0.134  0.000  0.245  0.178
    occupations:
  0.078 -0.000 -0.000 -0.000 -0.000
 -0.000  0.126 -0.000  0.031  0.032
 -0.000 -0.000  0.126  0.032 -0.031
 -0.000  0.031  0.032  0.113  0.000
 -0.000  0.032 -0.031  0.000  0.113
   spin  2
    eigenvalues: 
  1.000  1.000  1.001  1.001  1.001
    eigenvectors:
  0.000  0.000  1.000  0.000  0.000
  0.007  0.525  0.000  0.039  0.429
  0.525  0.007  0.000  0.429  0.039
  0.186  0.282  0.000  0.126  0.406
  0.282  0.186  0.000  0.406  0.126
    occupations:
  1.001 -0.000 -0.000 -0.000 -0.000
 -0.000  1.000 -0.000 -0.000 -0.000
 -0.000 -0.000  1.000 -0.000  0.000
 -0.000 -0.000 -0.000  1.000  0.000
 -0.000 -0.000  0.000  0.000  1.000
atomic mag. moment =  -4.44602
atom    2   Tr[ns(na)] (up, down, total) =   0.55114  5.00121  5.55236
   spin  1
    eigenvalues: 
  0.073  0.073  0.074  0.165  0.165
    eigenvectors:
  0.000  0.000  1.000  0.000  0.000
  0.307  0.084  0.000  0.442  0.167
  0.084  0.307  0.000  0.167  0.442
  0.044  0.565  0.000  0.016  0.375
  0.565  0.044  0.000  0.375  0.016
    occupations:
  0.074 -0.000 -0.000 -0.000 -0.000
 -0.000  0.129 -0.000 -0.031  0.033
 -0.000 -0.000  0.129  0.033  0.031
 -0.000 -0.031  0.033  0.109  0.000
 -0.000  0.033  0.031  0.000  0.109
   spin  2
    eigenvalues: 
  1.000  1.000  1.001  1.001  1.001
    eigenvectors:
  0.000  0.000  1.000  0.000  0.000
  0.450  0.162  0.000  0.302  0.086
  0.162  0.450  0.000  0.086  0.302
  0.015  0.373  0.000  0.037  0.576
  0.373  0.015  0.000  0.576  0.037
    occupations:
  1.001 -0.000 -0.000 -0.000 -0.000
 -0.000  1.000 -0.000  0.000 -0.000
 -0.000 -0.000  1.000 -0.000 -0.000
 -0.000  0.000 -0.000  1.000  0.000
 -0.000 -0.000 -0.000  0.000  1.000
atomic mag. moment =  -4.45007
atom    3   Tr[ns(na)] (up, down, total) =   0.55272  5.00082  5.55355
   spin  1
    eigenvalues: 
  0.076  0.077  0.077  0.162  0.162
    eigenvectors:
  1.000  0.000  0.000  0.000  0.000
  0.000  0.346  0.113  0.441  0.099
  0.000  0.113  0.346  0.099  0.441
  0.000  0.030  0.510  0.044  0.416
  0.000  0.510  0.030  0.416  0.044
    occupations:
  0.076 -0.000 -0.000 -0.000 -0.000
 -0.000  0.123 -0.000 -0.029  0.031
 -0.000 -0.000  0.123  0.031  0.029
 -0.000 -0.029  0.031  0.116  0.000
 -0.000  0.031  0.029  0.000  0.116
   spin  2
    eigenvalues: 
  0.999  0.999  1.001  1.001  1.001
    eigenvectors:
  0.000  0.000  1.000  0.000  0.000
  0.421  0.072  0.000  0.355  0.152
  0.072  0.421  0.000  0.152  0.355
  0.063  0.444  0.000  0.014  0.478
  0.444  0.063  0.000  0.478  0.014
    occupations:
  1.001 -0.000 -0.000 -0.000 -0.000
 -0.000  1.000 -0.000  0.000 -0.000
 -0.000 -0.000  1.000 -0.000 -0.000
 -0.000  0.000 -0.000  1.000  0.000
 -0.000 -0.000 -0.000  0.000  1.000
atomic mag. moment =  -4.44810
atom    4   Tr[ns(na)] (up, down, total) =   5.00083  0.55170  5.55253
   spin  1
    eigenvalues: 
  0.999  0.999  1.001  1.001  1.001
    eigenvectors:
  0.000  0.000  1.000  0.000  0.000
  0.011  0.483  0.000  0.041  0.465
  0.483  0.011  0.000  0.465  0.041
  0.194  0.311  0.000  0.127  0.368
  0.311  0.194  0.000  0.368  0.127
    occupations:
  1.001 -0.000 -0.000 -0.000 -0.000
 -0.000  1.000 -0.000 -0.000 -0.000
 -0.000 -0.000  1.000 -0.000  0.000
 -0.000 -0.000 -0.000  1.000  0.000
 -0.000 -0.000  0.000  0.000  1.000
   spin  2
    eigenvalues: 
  0.074  0.077  0.077  0.161  0.161
    eigenvectors:
  1.000  0.000  0.000  0.000  0.000
  0.000  0.034  0.420  0.007  0.539
  0.000  0.420  0.034  0.539  0.007
  0.000  0.137  0.409  0.184  0.270
  0.000  0.409  0.137  0.270  0.184
    occupations:
  0.074 -0.000 -0.000 -0.000 -0.000
 -0.000  0.123 -0.000  0.029  0.030
 -0.000 -0.000  0.123  0.030 -0.029
 -0.000  0.029  0.030  0.115  0.000
 -0.000  0.030 -0.029  0.000  0.115
atomic mag. moment =   4.44913
atom    5   Tr[ns(na)] (up, down, total) =   5.00146  0.55426  5.55572
   spin  1
    eigenvalues: 
  1.000  1.000  1.001  1.001  1.001
    eigenvectors:
  0.000  0.000  1.000  0.000  0.000
  0.429  0.103  0.000  0.333  0.136
  0.103  0.429  0.000  0.136  0.333
  0.045  0.423  0.000  0.022  0.510
  0.423  0.045  0.000  0.510  0.022
    occupations:
  1.001 -0.000 -0.000 -0.000 -0.000
 -0.000  1.000 -0.000  0.000 -0.000
 -0.000 -0.000  1.000 -0.000 -0.000
 -0.000  0.000 -0.000  1.000  0.000
 -0.000 -0.000 -0.000  0.000  1.000
   spin  2
    eigenvalues: 
  0.074  0.074  0.076  0.164  0.164
    eigenvectors:
  0.000  0.000  1.000  0.000  0.000
  0.317  0.106  0.000  0.438  0.139
  0.106  0.317  0.000  0.139  0.438
  0.034  0.543  0.000  0.027  0.395
  0.543  0.034  0.000  0.395  0.027
    occupations:
  0.076 -0.000 -0.000 -0.000 -0.000
 -0.000  0.126 -0.000 -0.031  0.032
 -0.000 -0.000  0.126  0.032  0.031
 -0.000 -0.031  0.032  0.112  0.000
 -0.000  0.032  0.031  0.000  0.112
atomic mag. moment =   4.44721
atom    6   Tr[ns(na)] (up, down, total) =   5.00121  0.55282  5.55403
   spin  1
    eigenvalues: 
  1.000  1.000  1.001  1.001  1.001
    eigenvectors:
  0.000  0.000  1.000  0.000  0.000
  0.006  0.606  0.000  0.049  0.339
  0.606  0.006  0.000  0.339  0.049
  0.176  0.212  0.000  0.126  0.485
  0.212  0.176  0.000  0.485  0.126
    occupations:
  1.001 -0.000 -0.000 -0.000 -0.000
 -0.000  1.000 -0.000 -0.000 -0.000
 -0.000 -0.000  1.000 -0.000  0.000
 -0.000 -0.000 -0.000  1.000  0.000
 -0.000 -0.000  0.000  0.000  1.000
   spin  2
    eigenvalues: 
  0.074  0.074  0.074  0.165  0.165
    eigenvectors:
  0.000  0.000  1.000  0.000  0.000
  0.036  0.355  0.000  0.004  0.605
  0.355  0.036  0.000  0.605  0.004
  0.144  0.465  0.000  0.174  0.217
  0.465  0.144  0.000  0.217  0.174
    occupations:
  0.074 -0.000 -0.000 -0.000 -0.000
 -0.000  0.130 -0.000  0.031  0.032
 -0.000 -0.000  0.130  0.032 -0.031
 -0.000  0.031  0.032  0.110  0.000
 -0.000  0.032 -0.031  0.000  0.110
atomic mag. moment =   4.44839
N of occupied +U levels =   33.325100
 --- exit write_ns ---

     negative rho (up, down):  1.185E-01 1.185E-01
 --- in v_hubbard ---
Hubbard energy    0.3053
 -------

     total cpu time spent up to now is      456.8 secs

     total energy              =   -3192.40753670 Ry
     estimated scf accuracy    <       5.30364222 Ry

     total magnetization       =    -0.00 Bohr mag/cell
     absolute magnetization    =    29.72 Bohr mag/cell

     iteration #  3     ecut=    40.00 Ry     beta= 0.40
     CG style diagonalization
     ethr =  1.80E-03,  avg # of iterations =  3.4
 --- enter write_ns ---
 LDA+U parameters:
U( 3)     =  4.10000000
U( 4)     =  4.10000000
atom    1   Tr[ns(na)] (up, down, total) =   0.59244  5.00101  5.59345
   spin  1
    eigenvalues: 
  0.077  0.077  0.080  0.179  0.179
    eigenvectors:
  0.000  0.000  1.000  0.000  0.000
  0.041  0.375  0.000  0.005  0.579
  0.375  0.041  0.000  0.579  0.005
  0.130  0.454  0.000  0.178  0.238
  0.454  0.130  0.000  0.238  0.178
    occupations:
  0.080 -0.000 -0.000 -0.000 -0.000
 -0.000  0.137 -0.000  0.035  0.037
 -0.000 -0.000  0.137  0.037 -0.035
 -0.000  0.035  0.037  0.119  0.000
 -0.000  0.037 -0.035  0.000  0.119
   spin  2
    eigenvalues: 
  1.000  1.000  1.000  1.001  1.001
    eigenvectors:
  0.000  0.000  1.000  0.000  0.000
  0.009  0.407  0.000  0.019  0.565
  0.407  0.009  0.000  0.565  0.019
  0.197  0.387  0.000  0.127  0.289
  0.387  0.197  0.000  0.289  0.127
    occupations:
  1.000 -0.000 -0.000 -0.000 -0.000
 -0.000  1.000 -0.000 -0.000 -0.000
 -0.000 -0.000  1.000 -0.000  0.000
 -0.000 -0.000 -0.000  1.000  0.000
 -0.000 -0.000  0.000  0.000  1.000
atomic mag. moment =  -4.40857
atom    2   Tr[ns(na)] (up, down, total) =   0.59944  5.00040  5.59984
   spin  1
    eigenvalues: 
  0.077  0.077  0.080  0.183  0.183
    eigenvectors:
  0.000  0.000  1.000  0.000  0.000
  0.299  0.085  0.000  0.430  0.186
  0.085  0.299  0.000  0.186  0.430
  0.046  0.570  0.000  0.013  0.371
  0.570  0.046  0.000  0.371  0.013
    occupations:
  0.080 -0.000 -0.000 -0.000 -0.000
 -0.000  0.142 -0.000 -0.036  0.037
 -0.000 -0.000  0.142  0.037  0.036
 -0.000 -0.036  0.037  0.118  0.000
 -0.000  0.037  0.036  0.000  0.118
   spin  2
    eigenvalues: 
  1.000  1.000  1.000  1.000  1.000
    eigenvectors:
  0.000  0.000  1.000  0.000  0.000
  0.540  0.041  0.000  0.359  0.061
  0.041  0.540  0.000  0.061  0.359
  0.046  0.374  0.000  0.026  0.554
  0.374  0.046  0.000  0.554  0.026
    occupations:
  1.000 -0.000 -0.000 -0.000 -0.000
 -0.000  1.000 -0.000  0.000 -0.000
 -0.000 -0.000  1.000 -0.000 -0.000
 -0.000  0.000 -0.000  1.000  0.000
 -0.000 -0.000 -0.000  0.000  1.000
atomic mag. moment =  -4.40096
atom    3   Tr[ns(na)] (up, down, total) =   0.60923  5.00010  5.60933
   spin  1
    eigenvalues: 
  0.084  0.084  0.084  0.179  0.179
    eigenvectors:
  0.000  0.000  1.000  0.000  0.000
  0.348  0.126  0.000  0.426  0.100
  0.126  0.348  0.000  0.100  0.426
  0.028  0.498  0.000  0.048  0.426
  0.498  0.028  0.000  0.426  0.048
    occupations:
  0.084 -0.000 -0.000 -0.000 -0.000
 -0.000  0.134 -0.000 -0.033  0.034
 -0.000 -0.000  0.134  0.034  0.033
 -0.000 -0.033  0.034  0.129  0.000
 -0.000  0.034  0.033  0.000  0.129
   spin  2
    eigenvalues: 
  0.999  0.999  1.000  1.000  1.000
    eigenvectors:
  0.000  0.000  1.000  0.000  0.000
  0.380  0.038  0.000  0.386  0.196
  0.038  0.380  0.000  0.196  0.386
  0.097  0.485  0.000  0.005  0.413
  0.485  0.097  0.000  0.413  0.005
    occupations:
  1.000 -0.000 -0.000 -0.000 -0.000
 -0.000  1.000 -0.000  0.000 -0.000
 -0.000 -0.000  1.000 -0.000 -0.000
 -0.000  0.000 -0.000  1.000  0.000
 -0.000 -0.000 -0.000  0.000  1.000
atomic mag. moment =  -4.39087
atom    4   Tr[ns(na)] (up, down, total) =   5.00011  0.60898  5.60910
   spin  1
    eigenvalues: 
  0.999  0.999  1.000  1.000  1.000
    eigenvectors:
  0.000  0.000  1.000  0.000  0.000
  0.018  0.403  0.000  0.036  0.543
  0.403  0.018  0.000  0.543  0.036
  0.206  0.374  0.000  0.131  0.290
  0.374  0.206  0.000  0.290  0.131
    occupations:
  1.000 -0.000 -0.000 -0.000 -0.000
 -0.000  1.000 -0.000 -0.000 -0.000
 -0.000 -0.000  1.000 -0.000  0.000
 -0.000 -0.000 -0.000  1.000  0.000
 -0.000 -0.000  0.000  0.000  1.000
   spin  2
    eigenvalues: 
  0.082  0.084  0.084  0.179  0.179
    eigenvectors:
  1.000  0.000  0.000  0.000  0.000
  0.000  0.028  0.441  0.006  0.525
  0.000  0.441  0.028  0.525  0.006
  0.000  0.139  0.393  0.182  0.287
  0.000  0.393  0.139  0.287  0.182
    occupations:
  0.082 -0.000 -0.000 -0.000 -0.000
 -0.000  0.135 -0.000  0.034  0.033
 -0.000 -0.000  0.135  0.033 -0.034
 -0.000  0.034  0.033  0.129  0.000
 -0.000  0.033 -0.034  0.000  0.129
atomic mag. moment =   4.39113
atom    5   Tr[ns(na)] (up, down, total) =   5.00100  0.59167  5.59267
   spin  1
    eigenvalues: 
  1.000  1.000  1.000  1.001  1.001
    eigenvectors:
  0.000  0.000  1.000  0.000  0.000
  0.351  0.065  0.000  0.353  0.231
  0.065  0.351  0.000  0.231  0.353
  0.088  0.496  0.000  0.007  0.409
  0.496  0.088  0.000  0.409  0.007
    occupations:
  1.000 -0.000 -0.000 -0.000 -0.000
 -0.000  1.000 -0.000  0.000 -0.000
 -0.000 -0.000  1.000 -0.000 -0.000
 -0.000  0.000 -0.000  1.000  0.000
 -0.000 -0.000 -0.000  0.000  1.000
   spin  2
    eigenvalues: 
  0.076  0.076  0.080  0.180  0.180
    eigenvectors:
  0.000  0.000  1.000  0.000  0.000
  0.315  0.101  0.000  0.446  0.138
  0.101  0.315  0.000  0.138  0.446
  0.033  0.551  0.000  0.025  0.391
  0.551  0.033  0.000  0.391  0.025
    occupations:
  0.080 -0.000 -0.000 -0.000 -0.000
 -0.000  0.137 -0.000 -0.035  0.037
 -0.000 -0.000  0.137  0.037  0.035
 -0.000 -0.035  0.037  0.119  0.000
 -0.000  0.037  0.035  0.000  0.119
atomic mag. moment =   4.40934
atom    6   Tr[ns(na)] (up, down, total) =   5.00039  0.59923  5.59961
   spin  1
    eigenvalues: 
  1.000  1.000  1.000  1.000  1.000
    eigenvectors:
  0.000  0.000  1.000  0.000  0.000
  0.022  0.559  0.000  0.092  0.327
  0.559  0.022  0.000  0.327  0.092
  0.201  0.218  0.000  0.121  0.460
  0.218  0.201  0.000  0.460  0.121
    occupations:
  1.000 -0.000 -0.000 -0.000 -0.000
 -0.000  1.000 -0.000 -0.000 -0.000
 -0.000 -0.000  1.000 -0.000  0.000
 -0.000 -0.000 -0.000  1.000  0.000
 -0.000 -0.000  0.000  0.000  1.000
   spin  2
    eigenvalues: 
  0.077  0.077  0.080  0.183  0.183
    eigenvectors:
  0.000  0.000  1.000  0.000  0.000
  0.035  0.351  0.000  0.004  0.611
  0.351  0.035  0.000  0.611  0.004
  0.142  0.473  0.000  0.172  0.214
  0.473  0.142  0.000  0.214  0.172
    occupations:
  0.080 -0.000 -0.000 -0.000 -0.000
 -0.000  0.142 -0.000  0.035  0.037
 -0.000 -0.000  0.142  0.037 -0.035
 -0.000  0.035  0.037  0.118  0.000
 -0.000  0.037 -0.035  0.000  0.118
atomic mag. moment =   4.40116
N of occupied +U levels =   33.603994
 --- exit write_ns ---

     negative rho (up, down):  1.176E-01 1.176E-01
 --- in v_hubbard ---
Hubbard energy    0.4467
 -------

     total cpu time spent up to now is      695.7 secs

     total energy              =   -3193.92328184 Ry
     estimated scf accuracy    <       1.70820911 Ry

     total magnetization       =    -0.00 Bohr mag/cell
     absolute magnetization    =    29.36 Bohr mag/cell

     iteration #  4     ecut=    40.00 Ry     beta= 0.40
     CG style diagonalization
     ethr =  5.81E-04,  avg # of iterations =  3.9
 --- enter write_ns ---
 LDA+U parameters:
U( 3)     =  4.10000000
U( 4)     =  4.10000000
atom    1   Tr[ns(na)] (up, down, total) =   1.02934  4.99932  6.02867
   spin  1
    eigenvalues: 
  0.148  0.154  0.154  0.286  0.286
    eigenvectors:
  1.000  0.000  0.000  0.000  0.000
  0.000  0.070  0.325  0.019  0.585
  0.000  0.325  0.070  0.585  0.019
  0.000  0.153  0.451  0.197  0.198
  0.000  0.451  0.153  0.198  0.197
    occupations:
  0.148 -0.000 -0.000 -0.000 -0.000
 -0.000  0.234 -0.000  0.037  0.053
 -0.000 -0.000  0.234  0.053 -0.037
 -0.000  0.037  0.053  0.207  0.000
 -0.000  0.053 -0.037  0.000  0.207
   spin  2
    eigenvalues: 
  1.000  1.000  1.000  1.000  1.000
    eigenvectors:
  0.000  0.000  1.000  0.000  0.000
  0.030  0.317  0.000  0.032  0.621
  0.317  0.030  0.000  0.621  0.032
  0.218  0.435  0.000  0.140  0.207
  0.435  0.218  0.000  0.207  0.140
    occupations:
  1.000 -0.000 -0.000 -0.000 -0.000
 -0.000  1.000 -0.000 -0.000 -0.000
 -0.000 -0.000  1.000 -0.000  0.000
 -0.000 -0.000 -0.000  1.000  0.000
 -0.000 -0.000  0.000  0.000  1.000
atomic mag. moment =  -3.96998
atom    2   Tr[ns(na)] (up, down, total) =   1.06994  4.99462  6.06456
   spin  1
    eigenvalues: 
  0.147  0.156  0.156  0.306  0.306
    eigenvectors:
  1.000  0.000  0.000  0.000  0.000
  0.000  0.311  0.039  0.472  0.178
  0.000  0.039  0.311  0.178  0.472
  0.000  0.067  0.583  0.005  0.346
  0.000  0.583  0.067  0.346  0.005
    occupations:
  0.147 -0.000 -0.000 -0.000 -0.000
 -0.000  0.253 -0.000 -0.044  0.056
 -0.000 -0.000  0.253  0.056  0.044
 -0.000 -0.044  0.056  0.209  0.000
 -0.000  0.056  0.044  0.000  0.209
   spin  2
    eigenvalues: 
  0.997  0.997  1.000  1.000  1.000
    eigenvectors:
  0.000  0.000  1.000  0.000  0.000
  0.350  0.341  0.000  0.247  0.061
  0.341  0.350  0.000  0.061  0.247
  0.000  0.308  0.000  0.057  0.635
  0.308  0.000  0.000  0.635  0.057
    occupations:
  1.000 -0.000 -0.000 -0.000 -0.000
 -0.000  0.998 -0.000  0.001 -0.001
 -0.000 -0.000  0.998 -0.001 -0.001
 -0.000  0.001 -0.001  0.999  0.000
 -0.000 -0.001 -0.001  0.000  0.999
atomic mag. moment =  -3.92468
atom    3   Tr[ns(na)] (up, down, total) =   1.08601  4.99484  6.08085
   spin  1
    eigenvalues: 
  0.165  0.165  0.167  0.295  0.295
    eigenvectors:
  0.000  0.000  1.000  0.000  0.000
  0.406  0.117  0.000  0.434  0.043
  0.117  0.406  0.000  0.043  0.434
  0.021  0.456  0.000  0.078  0.445
  0.456  0.021  0.000  0.445  0.078
    occupations:
  0.167 -0.000 -0.000 -0.000 -0.000
 -0.000  0.227 -0.000 -0.042  0.050
 -0.000 -0.000  0.227  0.050  0.042
 -0.000 -0.042  0.050  0.233  0.000
 -0.000  0.050  0.042  0.000  0.233
   spin  2
    eigenvalues: 
  0.998  0.998  0.999  1.000  1.000
    eigenvectors:
  0.000  0.000  1.000  0.000  0.000
  0.298  0.087  0.000  0.321  0.294
  0.087  0.298  0.000  0.294  0.321
  0.093  0.522  0.000  0.007  0.378
  0.522  0.093  0.000  0.378  0.007
    occupations:
  0.999 -0.000 -0.000 -0.000 -0.000
 -0.000  0.999 -0.000  0.001 -0.001
 -0.000 -0.000  0.999 -0.001 -0.001
 -0.000  0.001 -0.001  0.999  0.000
 -0.000 -0.001 -0.001  0.000  0.999
atomic mag. moment =  -3.90883
atom    4   Tr[ns(na)] (up, down, total) =   4.99491  1.08838  6.08328
   spin  1
    eigenvalues: 
  0.998  0.998  0.999  1.000  1.000
    eigenvectors:
  0.000  0.000  1.000  0.000  0.000
  0.003  0.385  0.000  0.005  0.607
  0.385  0.003  0.000  0.607  0.005
  0.188  0.424  0.000  0.120  0.268
  0.424  0.188  0.000  0.268  0.120
    occupations:
  0.999 -0.000 -0.000 -0.000 -0.000
 -0.000  0.999 -0.000 -0.001 -0.001
 -0.000 -0.000  0.999 -0.001  0.001
 -0.000 -0.001 -0.001  0.999  0.000
 -0.000 -0.001  0.001  0.000  0.999
   spin  2
    eigenvalues: 
  0.163  0.168  0.168  0.295  0.295
    eigenvectors:
  1.000  0.000  0.000  0.000  0.000
  0.000  0.031  0.487  0.016  0.466
  0.000  0.487  0.031  0.466  0.016
  0.000  0.156  0.326  0.200  0.318
  0.000  0.326  0.156  0.318  0.200
    occupations:
  0.163 -0.000 -0.000 -0.000 -0.000
 -0.000  0.229 -0.000  0.042  0.048
 -0.000 -0.000  0.229  0.048 -0.042
 -0.000  0.042  0.048  0.234  0.000
 -0.000  0.048 -0.042  0.000  0.234
atomic mag. moment =   3.90653
atom    5   Tr[ns(na)] (up, down, total) =   4.99935  1.03269  6.03204
   spin  1
    eigenvalues: 
  1.000  1.000  1.000  1.000  1.000
    eigenvectors:
  0.000  0.000  1.000  0.000  0.000
  0.333  0.012  0.000  0.417  0.237
  0.012  0.333  0.000  0.237  0.417
  0.132  0.523  0.000  0.000  0.346
  0.523  0.132  0.000  0.346  0.000
    occupations:
  1.000 -0.000 -0.000 -0.000 -0.000
 -0.000  1.000 -0.000  0.000 -0.000
 -0.000 -0.000  1.000 -0.000 -0.000
 -0.000  0.000 -0.000  1.000  0.000
 -0.000 -0.000 -0.000  0.000  1.000
   spin  2
    eigenvalues: 
  0.145  0.157  0.157  0.287  0.287
    eigenvectors:
  1.000  0.000  0.000  0.000  0.000
  0.000  0.364  0.035  0.559  0.042
  0.000  0.035  0.364  0.042  0.559
  0.000  0.047  0.554  0.039  0.360
  0.000  0.554  0.047  0.360  0.039
    occupations:
  0.145 -0.000 -0.000 -0.000 -0.000
 -0.000  0.235 -0.000 -0.035  0.053
 -0.000 -0.000  0.235  0.053  0.035
 -0.000 -0.035  0.053  0.209  0.000
 -0.000  0.053  0.035  0.000  0.209
atomic mag. moment =   3.96665
atom    6   Tr[ns(na)] (up, down, total) =   4.99469  1.07390  6.06859
   spin  1
    eigenvalues: 
  0.998  0.998  1.000  1.000  1.000
    eigenvectors:
  0.000  0.000  1.000  0.000  0.000
  0.001  0.690  0.000  0.039  0.270
  0.690  0.001  0.000  0.270  0.039
  0.153  0.156  0.000  0.130  0.561
  0.156  0.153  0.000  0.561  0.130
    occupations:
  1.000 -0.000 -0.000 -0.000 -0.000
 -0.000  0.998 -0.000 -0.001 -0.001
 -0.000 -0.000  0.998 -0.001  0.001
 -0.000 -0.001 -0.001  0.999  0.000
 -0.000 -0.001  0.001  0.000  0.999
   spin  2
    eigenvalues: 
  0.147  0.158  0.158  0.306  0.306
    eigenvectors:
  1.000  0.000  0.000  0.000  0.000
  0.000  0.049  0.303  0.008  0.639
  0.000  0.303  0.049  0.639  0.008
  0.000  0.163  0.485  0.180  0.173
  0.000  0.485  0.163  0.173  0.180
    occupations:
  0.147 -0.000 -0.000 -0.000 -0.000
 -0.000  0.254 -0.000  0.043  0.056
 -0.000 -0.000  0.254  0.056 -0.043
 -0.000  0.043  0.056  0.210  0.000
 -0.000  0.056 -0.043  0.000  0.210
atomic mag. moment =   3.92080
N of occupied +U levels =   36.357993
 --- exit write_ns ---

     negative rho (up, down):  1.176E-01 1.176E-01
 --- in v_hubbard ---
Hubbard energy    0.4312
 -------

     total cpu time spent up to now is      975.3 secs

     total energy              =   -3194.26088756 Ry
     estimated scf accuracy    <       0.52226302 Ry

     total magnetization       =    -0.01 Bohr mag/cell
     absolute magnetization    =    28.25 Bohr mag/cell

     iteration #  5     ecut=    40.00 Ry     beta= 0.40
     CG style diagonalization
     ethr =  1.78E-04,  avg # of iterations =  3.4
 --- enter write_ns ---
 LDA+U parameters:
U( 3)     =  4.10000000
U( 4)     =  4.10000000
atom    1   Tr[ns(na)] (up, down, total) =   1.19268  4.99942  6.19210
   spin  1
    eigenvalues: 
  0.174  0.174  0.175  0.334  0.334
    eigenvectors:
  0.000  0.000  1.000  0.000  0.000
  0.078  0.313  0.000  0.024  0.585
  0.313  0.078  0.000  0.585  0.024
  0.164  0.445  0.000  0.204  0.186
  0.445  0.164  0.000  0.186  0.204
    occupations:
  0.175 -0.000 -0.000 -0.000 -0.000
 -0.000  0.272 -0.000  0.042  0.066
 -0.000 -0.000  0.272  0.066 -0.042
 -0.000  0.042  0.066  0.237  0.000
 -0.000  0.066 -0.042  0.000  0.237
   spin  2
    eigenvalues: 
  0.999  0.999  1.000  1.000  1.000
    eigenvectors:
  0.000  0.000  1.000  0.000  0.000
  0.018  0.391  0.000  0.034  0.557
  0.391  0.018  0.000  0.557  0.034
  0.207  0.384  0.000  0.131  0.278
  0.384  0.207  0.000  0.278  0.131
    occupations:
  1.000 -0.000 -0.000 -0.000 -0.000
 -0.000  1.000 -0.000 -0.000 -0.000
 -0.000 -0.000  1.000 -0.000  0.000
 -0.000 -0.000 -0.000  1.000  0.000
 -0.000 -0.000  0.000  0.000  1.000
atomic mag. moment =  -3.80675
atom    2   Tr[ns(na)] (up, down, total) =   1.26328  4.99362  6.25690
   spin  1
    eigenvalues: 
  0.176  0.181  0.181  0.363  0.363
    eigenvectors:
  1.000  0.000  0.000  0.000  0.000
  0.000  0.297  0.031  0.439  0.233
  0.000  0.031  0.297  0.233  0.439
  0.000  0.078  0.594  0.000  0.328
  0.000  0.594  0.078  0.328  0.000
    occupations:
  0.176 -0.000 -0.000 -0.000 -0.000
 -0.000  0.303 -0.000 -0.052  0.068
 -0.000 -0.000  0.303  0.068  0.052
 -0.000 -0.052  0.068  0.240  0.000
 -0.000  0.068  0.052  0.000  0.240
   spin  2
    eigenvalues: 
  0.997  0.997  1.000  1.000  1.000
    eigenvectors:
  0.000  0.000  1.000  0.000  0.000
  0.347  0.340  0.000  0.245  0.068
  0.340  0.347  0.000  0.068  0.245
  0.000  0.313  0.000  0.056  0.631
  0.313  0.000  0.000  0.631  0.056
    occupations:
  1.000 -0.000 -0.000 -0.000 -0.000
 -0.000  0.998 -0.000  0.001 -0.001
 -0.000 -0.000  0.998 -0.001 -0.001
 -0.000  0.001 -0.001  0.999  0.000
 -0.000 -0.001 -0.001  0.000  0.999
atomic mag. moment =  -3.73033
atom    3   Tr[ns(na)] (up, down, total) =   1.28353  4.99389  6.27742
   spin  1
    eigenvalues: 
  0.195  0.195  0.196  0.349  0.349
    eigenvectors:
  0.000  0.000  1.000  0.000  0.000
  0.422  0.093  0.000  0.453  0.031
  0.093  0.422  0.000  0.031  0.453
  0.025  0.460  0.000  0.082  0.433
  0.460  0.025  0.000  0.433  0.082
    occupations:
  0.196 -0.000 -0.000 -0.000 -0.000
 -0.000  0.270 -0.000 -0.048  0.061
 -0.000 -0.000  0.270  0.061  0.048
 -0.000 -0.048  0.061  0.274  0.000
 -0.000  0.061  0.048  0.000  0.274
   spin  2
    eigenvalues: 
  0.997  0.997  1.000  1.000  1.000
    eigenvectors:
  0.000  0.000  1.000  0.000  0.000
  0.326  0.099  0.000  0.321  0.254
  0.099  0.326  0.000  0.254  0.321
  0.079  0.496  0.000  0.010  0.414
  0.496  0.079  0.000  0.414  0.010
    occupations:
  1.000 -0.000 -0.000 -0.000 -0.000
 -0.000  0.999 -0.000  0.001 -0.001
 -0.000 -0.000  0.999 -0.001 -0.001
 -0.000  0.001 -0.001  0.998  0.000
 -0.000 -0.001 -0.001  0.000  0.998
atomic mag. moment =  -3.71035
atom    4   Tr[ns(na)] (up, down, total) =   4.99400  1.29373  6.28774
   spin  1
    eigenvalues: 
  0.997  0.997  1.000  1.000  1.000
    eigenvectors:
  0.000  0.000  1.000  0.000  0.000
  0.003  0.424  0.000  0.008  0.565
  0.424  0.003  0.000  0.565  0.008
  0.185  0.388  0.000  0.123  0.304
  0.388  0.185  0.000  0.304  0.123
    occupations:
  1.000 -0.000 -0.000 -0.000 -0.000
 -0.000  0.999 -0.000 -0.001 -0.001
 -0.000 -0.000  0.999 -0.001  0.001
 -0.000 -0.001 -0.001  0.998  0.000
 -0.000 -0.001  0.001  0.000  0.998
   spin  2
    eigenvalues: 
  0.197  0.197  0.201  0.349  0.349
    eigenvectors:
  0.000  0.000  1.000  0.000  0.000
  0.039  0.474  0.000  0.022  0.464
  0.474  0.039  0.000  0.464  0.022
  0.168  0.318  0.000  0.209  0.305
  0.318  0.168  0.000  0.305  0.209
    occupations:
  0.201 -0.000 -0.000 -0.000 -0.000
 -0.000  0.271 -0.000  0.047  0.060
 -0.000 -0.000  0.271  0.060 -0.047
 -0.000  0.047  0.060  0.275  0.000
 -0.000  0.060 -0.047  0.000  0.275
atomic mag. moment =   3.70027
atom    5   Tr[ns(na)] (up, down, total) =   4.99948  1.22045  6.21993
   spin  1
    eigenvalues: 
  0.999  0.999  1.000  1.000  1.000
    eigenvectors:
  0.000  0.000  1.000  0.000  0.000
  0.372  0.036  0.000  0.387  0.205
  0.036  0.372  0.000  0.205  0.387
  0.101  0.491  0.000  0.004  0.404
  0.491  0.101  0.000  0.404  0.004
    occupations:
  1.000 -0.000 -0.000 -0.000 -0.000
 -0.000  1.000 -0.000  0.000 -0.000
 -0.000 -0.000  1.000 -0.000 -0.000
 -0.000  0.000 -0.000  1.000  0.000
 -0.000 -0.000 -0.000  0.000  1.000
   spin  2
    eigenvalues: 
  0.181  0.181  0.185  0.336  0.336
    eigenvectors:
  0.000  0.000  1.000  0.000  0.000
  0.361  0.020  0.000  0.584  0.034
  0.020  0.361  0.000  0.034  0.584
  0.063  0.556  0.000  0.038  0.344
  0.556  0.063  0.000  0.344  0.038
    occupations:
  0.185 -0.000 -0.000 -0.000 -0.000
 -0.000  0.277 -0.000 -0.040  0.064
 -0.000 -0.000  0.277  0.064  0.040
 -0.000 -0.040  0.064  0.240  0.000
 -0.000  0.064  0.040  0.000  0.240
atomic mag. moment =   3.77903
atom    6   Tr[ns(na)] (up, down, total) =   4.99368  1.28218  6.27587
   spin  1
    eigenvalues: 
  0.997  0.997  1.000  1.000  1.000
    eigenvectors:
  0.000  0.000  1.000  0.000  0.000
  0.000  0.686  0.000  0.036  0.277
  0.686  0.000  0.000  0.277  0.036
  0.151  0.162  0.000  0.130  0.557
  0.162  0.151  0.000  0.557  0.130
    occupations:
  1.000 -0.000 -0.000 -0.000 -0.000
 -0.000  0.998 -0.000 -0.001 -0.001
 -0.000 -0.000  0.998 -0.001  0.001
 -0.000 -0.001 -0.001  0.999  0.000
 -0.000 -0.001  0.001  0.000  0.999
   spin  2
    eigenvalues: 
  0.180  0.187  0.187  0.365  0.365
    eigenvectors:
  1.000  0.000  0.000  0.000  0.000
  0.000  0.044  0.281  0.006  0.669
  0.000  0.281  0.044  0.669  0.006
  0.000  0.175  0.500  0.174  0.151
  0.000  0.500  0.175  0.151  0.174
    occupations:
  0.180 -0.000 -0.000 -0.000 -0.000
 -0.000  0.307 -0.000  0.051  0.066
 -0.000 -0.000  0.307  0.066 -0.051
 -0.000  0.051  0.066  0.244  0.000
 -0.000  0.066 -0.051  0.000  0.244
atomic mag. moment =   3.71150
N of occupied +U levels =   37.509953
 --- exit write_ns ---

     negative rho (up, down):  1.186E-01 1.185E-01
 --- in v_hubbard ---
Hubbard energy    0.5228
 -------

     total cpu time spent up to now is     1217.6 secs

     total energy              =   -3194.39343714 Ry
     estimated scf accuracy    <       1.22626262 Ry

     total magnetization       =    -0.05 Bohr mag/cell
     absolute magnetization    =    27.74 Bohr mag/cell

     iteration #  6     ecut=    40.00 Ry     beta= 0.40
     CG style diagonalization
     ethr =  1.78E-04,  avg # of iterations =  3.0
 --- enter write_ns ---
 LDA+U parameters:
U( 3)     =  4.10000000
U( 4)     =  4.10000000
atom    1   Tr[ns(na)] (up, down, total) =   1.19190  4.99605  6.18795
   spin  1
    eigenvalues: 
  0.170  0.175  0.175  0.336  0.336
    eigenvectors:
  1.000  0.000  0.000  0.000  0.000
  0.000  0.079  0.310  0.023  0.588
  0.000  0.310  0.079  0.588  0.023
  0.000  0.158  0.453  0.203  0.186
  0.000  0.453  0.158  0.186  0.203
    occupations:
  0.170 -0.000 -0.000 -0.000 -0.000
 -0.000  0.273 -0.000  0.042  0.066
 -0.000 -0.000  0.273  0.066 -0.042
 -0.000  0.042  0.066  0.238  0.000
 -0.000  0.066 -0.042  0.000  0.238
   spin  2
    eigenvalues: 
  0.998  0.998  1.000  1.000  1.000
    eigenvectors:
  0.000  0.000  1.000  0.000  0.000
  0.023  0.432  0.000  0.059  0.486
  0.432  0.023  0.000  0.486  0.059
  0.209  0.336  0.000  0.129  0.326
  0.336  0.209  0.000  0.326  0.129
    occupations:
  1.000 -0.000 -0.000 -0.000 -0.000
 -0.000  0.999 -0.000 -0.000 -0.001
 -0.000 -0.000  0.999 -0.001  0.000
 -0.000 -0.000 -0.001  0.999  0.000
 -0.000 -0.001  0.000  0.000  0.999
atomic mag. moment =  -3.80416
atom    2   Tr[ns(na)] (up, down, total) =   1.32551  4.98798  6.31348
   spin  1
    eigenvalues: 
  0.184  0.192  0.192  0.378  0.378
    eigenvectors:
  1.000  0.000  0.000  0.000  0.000
  0.000  0.298  0.028  0.449  0.224
  0.000  0.028  0.298  0.224  0.449
  0.000  0.075  0.599  0.000  0.326
  0.000  0.599  0.075  0.326  0.000
    occupations:
  0.184 -0.000 -0.000 -0.000 -0.000
 -0.000  0.317 -0.000 -0.052  0.070
 -0.000 -0.000  0.317  0.070  0.052
 -0.000 -0.052  0.070  0.253  0.000
 -0.000  0.070  0.052  0.000  0.253
   spin  2
    eigenvalues: 
  0.995  0.995  0.999  1.000  1.000
    eigenvectors:
  0.000  0.000  1.000  0.000  0.000
  0.388  0.284  0.000  0.264  0.064
  0.284  0.388  0.000  0.064  0.264
  0.000  0.328  0.000  0.051  0.621
  0.328  0.000  0.000  0.621  0.051
    occupations:
  0.999 -0.000 -0.000 -0.000 -0.000
 -0.000  0.996 -0.000  0.002 -0.002
 -0.000 -0.000  0.996 -0.002 -0.002
 -0.000  0.002 -0.002  0.998  0.000
 -0.000 -0.002 -0.002  0.000  0.998
atomic mag. moment =  -3.66247
atom    3   Tr[ns(na)] (up, down, total) =   1.38164  4.98939  6.37102
   spin  1
    eigenvalues: 
  0.212  0.212  0.219  0.369  0.369
    eigenvectors:
  0.000  0.000  1.000  0.000  0.000
  0.420  0.098  0.000  0.447  0.035
  0.098  0.420  0.000  0.035  0.447
  0.025  0.457  0.000  0.081  0.438
  0.457  0.025  0.000  0.438  0.081
    occupations:
  0.219 -0.000 -0.000 -0.000 -0.000
 -0.000  0.288 -0.000 -0.049  0.061
 -0.000 -0.000  0.288  0.061  0.049
 -0.000 -0.049  0.061  0.293  0.000
 -0.000  0.061  0.049  0.000  0.293
   spin  2
    eigenvalues: 
  0.996  0.996  0.999  1.000  1.000
    eigenvectors:
  0.000  0.000  1.000  0.000  0.000
  0.355  0.090  0.000  0.334  0.221
  0.090  0.355  0.000  0.221  0.334
  0.074  0.480  0.000  0.011  0.434
  0.480  0.074  0.000  0.434  0.011
    occupations:
  0.999 -0.000 -0.000 -0.000 -0.000
 -0.000  0.998 -0.000  0.001 -0.001
 -0.000 -0.000  0.998 -0.001 -0.001
 -0.000  0.001 -0.001  0.997  0.000
 -0.000 -0.001 -0.001  0.000  0.997
atomic mag. moment =  -3.60775
atom    4   Tr[ns(na)] (up, down, total) =   4.99224  1.44264  6.43489
   spin  1
    eigenvalues: 
  0.997  0.997  0.999  1.000  1.000
    eigenvectors:
  0.000  0.000  1.000  0.000  0.000
  0.003  0.403  0.000  0.006  0.588
  0.403  0.003  0.000  0.588  0.006
  0.187  0.407  0.000  0.121  0.285
  0.407  0.187  0.000  0.285  0.121
    occupations:
  0.999 -0.000 -0.000 -0.000 -0.000
 -0.000  0.999 -0.000 -0.001 -0.001
 -0.000 -0.000  0.999 -0.001  0.001
 -0.000 -0.001 -0.001  0.998  0.000
 -0.000 -0.001  0.001  0.000  0.998
   spin  2
    eigenvalues: 
  0.227  0.230  0.230  0.378  0.378
    eigenvectors:
  1.000  0.000  0.000  0.000  0.000
  0.000  0.022  0.531  0.018  0.429
  0.000  0.531  0.022  0.429  0.018
  0.000  0.171  0.277  0.208  0.344
  0.000  0.277  0.171  0.344  0.208
    occupations:
  0.227 -0.000 -0.000 -0.000 -0.000
 -0.000  0.296 -0.000  0.048  0.056
 -0.000 -0.000  0.296  0.056 -0.048
 -0.000  0.048  0.056  0.312  0.000
 -0.000  0.056 -0.048  0.000  0.312
atomic mag. moment =   3.54960
atom    5   Tr[ns(na)] (up, down, total) =   4.99840  1.31377  6.31218
   spin  1
    eigenvalues: 
  0.999  0.999  1.000  1.000  1.000
    eigenvectors:
  0.000  0.000  1.000  0.000  0.000
  0.322  0.020  0.000  0.400  0.259
  0.020  0.322  0.000  0.259  0.400
  0.127  0.531  0.000  0.000  0.341
  0.531  0.127  0.000  0.341  0.000
    occupations:
  1.000 -0.000 -0.000 -0.000 -0.000
 -0.000  1.000 -0.000  0.000 -0.000
 -0.000 -0.000  1.000 -0.000 -0.000
 -0.000  0.000 -0.000  1.000  0.000
 -0.000 -0.000 -0.000  0.000  1.000
   spin  2
    eigenvalues: 
  0.193  0.201  0.201  0.359  0.359
    eigenvectors:
  1.000  0.000  0.000  0.000  0.000
  0.000  0.367  0.018  0.601  0.014
  0.000  0.018  0.367  0.014  0.601
  0.000  0.057  0.558  0.052  0.333
  0.000  0.558  0.057  0.333  0.052
    occupations:
  0.193 -0.000 -0.000 -0.000 -0.000
 -0.000  0.298 -0.000 -0.039  0.066
 -0.000 -0.000  0.298  0.066  0.039
 -0.000 -0.039  0.066  0.262  0.000
 -0.000  0.066  0.039  0.000  0.262
atomic mag. moment =   3.68463
atom    6   Tr[ns(na)] (up, down, total) =   4.99131  1.40202  6.39333
   spin  1
    eigenvalues: 
  0.996  0.996  1.000  1.000  1.000
    eigenvectors:
  0.000  0.000  1.000  0.000  0.000
  0.001  0.681  0.000  0.041  0.277
  0.681  0.001  0.000  0.277  0.041
  0.156  0.162  0.000  0.129  0.553
  0.162  0.156  0.000  0.553  0.129
    occupations:
  1.000 -0.000 -0.000 -0.000 -0.000
 -0.000  0.997 -0.000 -0.001 -0.001
 -0.000 -0.000  0.997 -0.001  0.001
 -0.000 -0.001 -0.001  0.999  0.000
 -0.000 -0.001  0.001  0.000  0.999
   spin  2
    eigenvalues: 
  0.204  0.207  0.207  0.393  0.393
    eigenvectors:
  1.000  0.000  0.000  0.000  0.000
  0.000  0.047  0.273  0.006  0.674
  0.000  0.273  0.047  0.674  0.006
  0.000  0.169  0.511  0.172  0.148
  0.000  0.511  0.169  0.148  0.172
    occupations:
  0.204 -0.000 -0.000 -0.000 -0.000
 -0.000  0.333 -0.000  0.053  0.069
 -0.000 -0.000  0.333  0.069 -0.053
 -0.000  0.053  0.069  0.266  0.000
 -0.000  0.069 -0.053  0.000  0.266
atomic mag. moment =   3.58929
N of occupied +U levels =   38.012843
 --- exit write_ns ---

     negative rho (up, down):  1.188E-01 1.188E-01
 --- in v_hubbard ---
Hubbard energy    0.5669
 -------

     total cpu time spent up to now is     1433.0 secs

     total energy              =   -3194.37008033 Ry
     estimated scf accuracy    <       1.30396127 Ry

     total magnetization       =     0.06 Bohr mag/cell
     absolute magnetization    =    27.42 Bohr mag/cell

     iteration #  7     ecut=    40.00 Ry     beta= 0.40
     CG style diagonalization
     ethr =  1.78E-04,  avg # of iterations =  3.0
 --- enter write_ns ---
 LDA+U parameters:
U( 3)     =  4.10000000
U( 4)     =  4.10000000
atom    1   Tr[ns(na)] (up, down, total) =   1.32435  4.99797  6.32232
   spin  1
    eigenvalues: 
  0.195  0.203  0.203  0.362  0.362
    eigenvectors:
  1.000  0.000  0.000  0.000  0.000
  0.000  0.087  0.299  0.027  0.587
  0.000  0.299  0.087  0.587  0.027
  0.000  0.159  0.454  0.206  0.180
  0.000  0.454  0.159  0.180  0.206
    occupations:
  0.195 -0.000 -0.000 -0.000 -0.000
 -0.000  0.300 -0.000  0.040  0.066
 -0.000 -0.000  0.300  0.066 -0.040
 -0.000  0.040  0.066  0.264  0.000
 -0.000  0.066 -0.040  0.000  0.264
   spin  2
    eigenvalues: 
  0.999  0.999  1.000  1.000  1.000
    eigenvectors:
  0.000  0.000  1.000  0.000  0.000
  0.027  0.288  0.000  0.017  0.668
  0.288  0.027  0.000  0.668  0.017
  0.218  0.467  0.000  0.142  0.173
  0.467  0.218  0.000  0.173  0.142
    occupations:
  1.000 -0.000 -0.000 -0.000 -0.000
 -0.000  1.000 -0.000 -0.000 -0.000
 -0.000 -0.000  1.000 -0.000  0.000
 -0.000 -0.000 -0.000  0.999  0.000
 -0.000 -0.000  0.000  0.000  0.999
atomic mag. moment =  -3.67362
atom    2   Tr[ns(na)] (up, down, total) =   1.35821  4.99152  6.34973
   spin  1
    eigenvalues: 
  0.192  0.196  0.196  0.387  0.387
    eigenvectors:
  1.000  0.000  0.000  0.000  0.000
  0.000  0.285  0.034  0.409  0.272
  0.000  0.034  0.285  0.272  0.409
  0.000  0.077  0.604  0.000  0.319
  0.000  0.604  0.077  0.319  0.000
    occupations:
  0.192 -0.000 -0.000 -0.000 -0.000
 -0.000  0.326 -0.000 -0.056  0.070
 -0.000 -0.000  0.326  0.070  0.056
 -0.000 -0.056  0.070  0.257  0.000
 -0.000  0.070  0.056  0.000  0.257
   spin  2
    eigenvalues: 
  0.996  0.996  0.999  1.000  1.000
    eigenvectors:
  0.000  0.000  1.000  0.000  0.000
  0.373  0.303  0.000  0.257  0.067
  0.303  0.373  0.000  0.067  0.257
  0.000  0.324  0.000  0.053  0.623
  0.324  0.000  0.000  0.623  0.053
    occupations:
  0.999 -0.000 -0.000 -0.000 -0.000
 -0.000  0.997 -0.000  0.001 -0.001
 -0.000 -0.000  0.997 -0.001 -0.001
 -0.000  0.001 -0.001  0.999  0.000
 -0.000 -0.001 -0.001  0.000  0.999
atomic mag. moment =  -3.63332
atom    3   Tr[ns(na)] (up, down, total) =   1.33742  4.99047  6.32788
   spin  1
    eigenvalues: 
  0.202  0.202  0.208  0.363  0.363
    eigenvectors:
  0.000  0.000  1.000  0.000  0.000
  0.421  0.123  0.000  0.419  0.038
  0.123  0.421  0.000  0.038  0.419
  0.020  0.437  0.000  0.088  0.456
  0.437  0.020  0.000  0.456  0.088
    occupations:
  0.208 -0.000 -0.000 -0.000 -0.000
 -0.000  0.275 -0.000 -0.052  0.061
 -0.000 -0.000  0.275  0.061  0.052
 -0.000 -0.052  0.061  0.289  0.000
 -0.000  0.061  0.052  0.000  0.289
   spin  2
    eigenvalues: 
  0.996  0.996  0.999  0.999  0.999
    eigenvectors:
  0.000  0.000  1.000  0.000  0.000
  0.298  0.092  0.000  0.317  0.293
  0.092  0.298  0.000  0.293  0.317
  0.091  0.519  0.000  0.007  0.383
  0.519  0.091  0.000  0.383  0.007
    occupations:
  0.999 -0.000 -0.000 -0.000 -0.000
 -0.000  0.998 -0.000  0.001 -0.001
 -0.000 -0.000  0.998 -0.001 -0.001
 -0.000  0.001 -0.001  0.998  0.000
 -0.000 -0.001 -0.001  0.000  0.998
atomic mag. moment =  -3.65305
atom    4   Tr[ns(na)] (up, down, total) =   4.98559  1.23247  6.21807
   spin  1
    eigenvalues: 
  0.995  0.995  0.999  0.999  0.999
    eigenvectors:
  0.000  0.000  1.000  0.000  0.000
  0.004  0.436  0.000  0.013  0.547
  0.436  0.004  0.000  0.547  0.013
  0.187  0.373  0.000  0.124  0.315
  0.373  0.187  0.000  0.315  0.124
    occupations:
  0.999 -0.000 -0.000 -0.000 -0.000
 -0.000  0.997 -0.000 -0.002 -0.001
 -0.000 -0.000  0.997 -0.001  0.002
 -0.000 -0.002 -0.001  0.996  0.000
 -0.000 -0.001  0.002  0.000  0.996
   spin  2
    eigenvalues: 
  0.179  0.182  0.182  0.345  0.345
    eigenvectors:
  1.000  0.000  0.000  0.000  0.000
  0.000  0.030  0.467  0.014  0.489
  0.000  0.467  0.030  0.489  0.014
  0.000  0.165  0.339  0.199  0.298
  0.000  0.339  0.165  0.298  0.199
    occupations:
  0.179 -0.000 -0.000 -0.000 -0.000
 -0.000  0.264 -0.000  0.053  0.062
 -0.000 -0.000  0.264  0.062 -0.053
 -0.000  0.053  0.062  0.263  0.000
 -0.000  0.062 -0.053  0.000  0.263
atomic mag. moment =   3.75312
atom    5   Tr[ns(na)] (up, down, total) =   4.99578  1.22850  6.22428
   spin  1
    eigenvalues: 
  0.998  0.998  0.999  1.000  1.000
    eigenvectors:
  0.000  0.000  1.000  0.000  0.000
  0.404  0.027  0.000  0.400  0.168
  0.027  0.404  0.000  0.168  0.400
  0.098  0.470  0.000  0.005  0.427
  0.470  0.098  0.000  0.427  0.005
    occupations:
  0.999 -0.000 -0.000 -0.000 -0.000
 -0.000  0.999 -0.000  0.000 -0.001
 -0.000 -0.000  0.999 -0.001 -0.000
 -0.000  0.000 -0.001  0.999  0.000
 -0.000 -0.001 -0.000  0.000  0.999
   spin  2
    eigenvalues: 
  0.168  0.182  0.182  0.348  0.348
    eigenvectors:
  1.000  0.000  0.000  0.000  0.000
  0.000  0.368  0.022  0.591  0.020
  0.000  0.022  0.368  0.020  0.591
  0.000  0.054  0.556  0.048  0.341
  0.000  0.556  0.054  0.341  0.048
    occupations:
  0.168 -0.000 -0.000 -0.000 -0.000
 -0.000  0.283 -0.000 -0.042  0.069
 -0.000 -0.000  0.283  0.069  0.042
 -0.000 -0.042  0.069  0.247  0.000
 -0.000  0.069  0.042  0.000  0.247
atomic mag. moment =   3.76728
atom    6   Tr[ns(na)] (up, down, total) =   4.98692  1.26639  6.25331
   spin  1
    eigenvalues: 
  0.995  0.995  0.999  0.999  0.999
    eigenvectors:
  0.000  0.000  1.000  0.000  0.000
  0.002  0.664  0.000  0.042  0.292
  0.664  0.002  0.000  0.292  0.042
  0.160  0.173  0.000  0.129  0.538
  0.173  0.160  0.000  0.538  0.129
    occupations:
  0.999 -0.000 -0.000 -0.000 -0.000
 -0.000  0.996 -0.000 -0.002 -0.002
 -0.000 -0.000  0.996 -0.002  0.002
 -0.000 -0.002 -0.002  0.998  0.000
 -0.000 -0.002  0.002  0.000  0.998
   spin  2
    eigenvalues: 
  0.169  0.179  0.179  0.369  0.369
    eigenvectors:
  1.000  0.000  0.000  0.000  0.000
  0.000  0.054  0.278  0.008  0.660
  0.000  0.278  0.054  0.660  0.008
  0.000  0.164  0.504  0.178  0.154
  0.000  0.504  0.164  0.154  0.178
    occupations:
  0.169 -0.000 -0.000 -0.000 -0.000
 -0.000  0.306 -0.000  0.053  0.072
 -0.000 -0.000  0.306  0.072 -0.053
 -0.000  0.053  0.072  0.242  0.000
 -0.000  0.072 -0.053  0.000  0.242
atomic mag. moment =   3.72053
N of occupied +U levels =   37.695593
 --- exit write_ns ---

     negative rho (up, down):  1.189E-01 1.189E-01
 --- in v_hubbard ---
Hubbard energy    0.5943
 -------

     total cpu time spent up to now is     1646.2 secs

     total energy              =   -3194.34704991 Ry
     estimated scf accuracy    <       0.94195722 Ry

     total magnetization       =    -0.04 Bohr mag/cell
     absolute magnetization    =    27.64 Bohr mag/cell

     iteration #  8     ecut=    40.00 Ry     beta= 0.40
     CG style diagonalization
     ethr =  1.78E-04,  avg # of iterations =  3.0
 --- enter write_ns ---
 LDA+U parameters:
U( 3)     =  4.10000000
U( 4)     =  4.10000000
atom    1   Tr[ns(na)] (up, down, total) =   1.16626  4.99346  6.15973
   spin  1
    eigenvalues: 
  0.160  0.169  0.169  0.334  0.334
    eigenvectors:
  1.000  0.000  0.000  0.000  0.000
  0.000  0.077  0.311  0.022  0.590
  0.000  0.311  0.077  0.590  0.022
  0.000  0.158  0.453  0.202  0.186
  0.000  0.453  0.158  0.186  0.202
    occupations:
  0.160 -0.000 -0.000 -0.000 -0.000
 -0.000  0.270 -0.000  0.044  0.067
 -0.000 -0.000  0.270  0.067 -0.044
 -0.000  0.044  0.067  0.233  0.000
 -0.000  0.067 -0.044  0.000  0.233
   spin  2
    eigenvalues: 
  0.998  0.998  0.999  1.000  1.000
    eigenvectors:
  0.000  0.000  1.000  0.000  0.000
  0.013  0.491  0.000  0.047  0.450
  0.491  0.013  0.000  0.450  0.047
  0.195  0.301  0.000  0.127  0.376
  0.301  0.195  0.000  0.376  0.127
    occupations:
  0.999 -0.000 -0.000 -0.000 -0.000
 -0.000  0.999 -0.000 -0.001 -0.001
 -0.000 -0.000  0.999 -0.001  0.001
 -0.000 -0.001 -0.001  0.999  0.000
 -0.000 -0.001  0.001  0.000  0.999
atomic mag. moment =  -3.82720
atom    2   Tr[ns(na)] (up, down, total) =   1.21770  4.98603  6.20373
   spin  1
    eigenvalues: 
  0.159  0.169  0.169  0.360  0.360
    eigenvectors:
  1.000  0.000  0.000  0.000  0.000
  0.000  0.298  0.034  0.450  0.218
  0.000  0.034  0.298  0.218  0.450
  0.000  0.071  0.598  0.001  0.331
  0.000  0.598  0.071  0.331  0.001
    occupations:
  0.159 -0.000 -0.000 -0.000 -0.000
 -0.000  0.297 -0.000 -0.055  0.071
 -0.000 -0.000  0.297  0.071  0.055
 -0.000 -0.055  0.071  0.232  0.000
 -0.000  0.071  0.055  0.000  0.232
   spin  2
    eigenvalues: 
  0.994  0.994  0.999  0.999  0.999
    eigenvectors:
  0.000  0.000  1.000  0.000  0.000
  0.386  0.271  0.000  0.264  0.080
  0.271  0.386  0.000  0.080  0.264
  0.002  0.341  0.000  0.049  0.608
  0.341  0.002  0.000  0.608  0.049
    occupations:
  0.999 -0.000 -0.000 -0.000 -0.000
 -0.000  0.996 -0.000  0.002 -0.002
 -0.000 -0.000  0.996 -0.002 -0.002
 -0.000  0.002 -0.002  0.998  0.000
 -0.000 -0.002 -0.002  0.000  0.998
atomic mag. moment =  -3.76833
atom    3   Tr[ns(na)] (up, down, total) =   1.23815  4.98673  6.22487
   spin  1
    eigenvalues: 
  0.180  0.180  0.187  0.346  0.346
    eigenvectors:
  0.000  0.000  1.000  0.000  0.000
  0.404  0.108  0.000  0.439  0.048
  0.108  0.404  0.000  0.048  0.439
  0.025  0.462  0.000  0.073  0.439
  0.462  0.025  0.000  0.439  0.073
    occupations:
  0.187 -0.000 -0.000 -0.000 -0.000
 -0.000  0.261 -0.000 -0.054  0.063
 -0.000 -0.000  0.261  0.063  0.054
 -0.000 -0.054  0.063  0.265  0.000
 -0.000  0.063  0.054  0.000  0.265
   spin  2
    eigenvalues: 
  0.995  0.995  0.999  0.999  0.999
    eigenvectors:
  0.000  0.000  1.000  0.000  0.000
  0.339  0.101  0.000  0.323  0.237
  0.101  0.339  0.000  0.237  0.323
  0.074  0.486  0.000  0.012  0.428
  0.486  0.074  0.000  0.428  0.012
    occupations:
  0.999 -0.000 -0.000 -0.000 -0.000
 -0.000  0.997 -0.000  0.002 -0.001
 -0.000 -0.000  0.997 -0.001 -0.002
 -0.000  0.002 -0.001  0.997  0.000
 -0.000 -0.001 -0.002  0.000  0.997
atomic mag. moment =  -3.74858
atom    4   Tr[ns(na)] (up, down, total) =   4.98985  1.28264  6.27250
   spin  1
    eigenvalues: 
  0.996  0.996  0.999  0.999  0.999
    eigenvectors:
  0.000  0.000  1.000  0.000  0.000
  0.003  0.360  0.000  0.002  0.635
  0.360  0.003  0.000  0.635  0.002
  0.189  0.448  0.000  0.118  0.245
  0.448  0.189  0.000  0.245  0.118
    occupations:
  0.999 -0.000 -0.000 -0.000 -0.000
 -0.000  0.998 -0.000 -0.001 -0.001
 -0.000 -0.000  0.998 -0.001  0.001
 -0.000 -0.001 -0.001  0.997  0.000
 -0.000 -0.001  0.001  0.000  0.997
   spin  2
    eigenvalues: 
  0.188  0.193  0.193  0.355  0.355
    eigenvectors:
  1.000  0.000  0.000  0.000  0.000
  0.000  0.023  0.500  0.014  0.464
  0.000  0.500  0.023  0.464  0.014
  0.000  0.165  0.313  0.200  0.323
  0.000  0.313  0.165  0.323  0.200
    occupations:
  0.188 -0.000 -0.000 -0.000 -0.000
 -0.000  0.270 -0.000  0.054  0.060
 -0.000 -0.000  0.270  0.060 -0.054
 -0.000  0.054  0.060  0.277  0.000
 -0.000  0.060 -0.054  0.000  0.277
atomic mag. moment =   3.70721
atom    5   Tr[ns(na)] (up, down, total) =   4.99760  1.20422  6.20182
   spin  1
    eigenvalues: 
  0.999  0.999  0.999  1.000  1.000
    eigenvectors:
  0.000  0.000  1.000  0.000  0.000
  0.034  0.002  0.000  0.147  0.817
  0.002  0.034  0.000  0.817  0.147
  0.205  0.759  0.000  0.024  0.012
  0.759  0.205  0.000  0.012  0.024
    occupations:
  0.999 -0.000 -0.000 -0.000 -0.000
 -0.000  1.000 -0.000  0.000 -0.000
 -0.000 -0.000  1.000 -0.000 -0.000
 -0.000  0.000 -0.000  0.999  0.000
 -0.000 -0.000 -0.000  0.000  0.999
   spin  2
    eigenvalues: 
  0.162  0.177  0.177  0.344  0.344
    eigenvectors:
  1.000  0.000  0.000  0.000  0.000
  0.000  0.367  0.022  0.590  0.021
  0.000  0.022  0.367  0.021  0.590
  0.000  0.054  0.557  0.048  0.341
  0.000  0.557  0.054  0.341  0.048
    occupations:
  0.162 -0.000 -0.000 -0.000 -0.000
 -0.000  0.279 -0.000 -0.042  0.069
 -0.000 -0.000  0.279  0.069  0.042
 -0.000 -0.042  0.069  0.242  0.000
 -0.000  0.069  0.042  0.000  0.242
atomic mag. moment =   3.79338
atom    6   Tr[ns(na)] (up, down, total) =   4.98967  1.26064  6.25031
   spin  1
    eigenvalues: 
  0.996  0.996  0.999  0.999  0.999
    eigenvectors:
  0.000  0.000  1.000  0.000  0.000
  0.001  0.689  0.000  0.041  0.269
  0.689  0.001  0.000  0.269  0.041
  0.154  0.156  0.000  0.130  0.560
  0.156  0.154  0.000  0.560  0.130
    occupations:
  0.999 -0.000 -0.000 -0.000 -0.000
 -0.000  0.997 -0.000 -0.001 -0.001
 -0.000 -0.000  0.997 -0.001  0.001
 -0.000 -0.001 -0.001  0.998  0.000
 -0.000 -0.001  0.001  0.000  0.998
   spin  2
    eigenvalues: 
  0.168  0.176  0.176  0.370  0.370
    eigenvectors:
  1.000  0.000  0.000  0.000  0.000
  0.000  0.049  0.281  0.006  0.664
  0.000  0.281  0.049  0.664  0.006
  0.000  0.164  0.506  0.175  0.155
  0.000  0.506  0.164  0.155  0.175
    occupations:
  0.168 -0.000 -0.000 -0.000 -0.000
 -0.000  0.306 -0.000  0.056  0.072
 -0.000 -0.000  0.306  0.072 -0.056
 -0.000  0.056  0.072  0.240  0.000
 -0.000  0.072 -0.056  0.000  0.240
atomic mag. moment =   3.72902
N of occupied +U levels =   37.312954
 --- exit write_ns ---

     negative rho (up, down):  1.189E-01 1.189E-01
 --- in v_hubbard ---
Hubbard energy    0.6132
 -------

     total cpu time spent up to now is     1859.1 secs

     total energy              =   -3194.33194121 Ry
     estimated scf accuracy    <       0.60391794 Ry

     total magnetization       =     0.09 Bohr mag/cell
     absolute magnetization    =    27.84 Bohr mag/cell

     iteration #  9     ecut=    40.00 Ry     beta= 0.40
     CG style diagonalization
     ethr =  1.78E-04,  avg # of iterations =  3.0
 --- enter write_ns ---
 LDA+U parameters:
U( 3)     =  4.10000000
U( 4)     =  4.10000000
atom    1   Tr[ns(na)] (up, down, total) =   1.10188  4.99359  6.09547
   spin  1
    eigenvalues: 
  0.147  0.155  0.155  0.323  0.323
    eigenvectors:
  1.000  0.000  0.000  0.000  0.000
  0.000  0.074  0.315  0.020  0.592
  0.000  0.315  0.074  0.592  0.020
  0.000  0.157  0.455  0.200  0.188
  0.000  0.455  0.157  0.188  0.200
    occupations:
  0.147 -0.000 -0.000 -0.000 -0.000
 -0.000  0.258 -0.000  0.045  0.068
 -0.000 -0.000  0.258  0.068 -0.045
 -0.000  0.045  0.068  0.220  0.000
 -0.000  0.068 -0.045  0.000  0.220
   spin  2
    eigenvalues: 
  0.998  0.998  0.999  0.999  0.999
    eigenvectors:
  0.000  0.000  1.000  0.000  0.000
  0.021  0.397  0.000  0.043  0.540
  0.397  0.021  0.000  0.540  0.043
  0.209  0.374  0.000  0.131  0.287
  0.374  0.209  0.000  0.287  0.131
    occupations:
  0.999 -0.000 -0.000 -0.000 -0.000
 -0.000  0.999 -0.000 -0.000 -0.000
 -0.000 -0.000  0.999 -0.000  0.000
 -0.000 -0.000 -0.000  0.999  0.000
 -0.000 -0.000  0.000  0.000  0.999
atomic mag. moment =  -3.89171
atom    2   Tr[ns(na)] (up, down, total) =   1.19433  4.98678  6.18111
   spin  1
    eigenvalues: 
  0.153  0.162  0.162  0.358  0.358
    eigenvectors:
  1.000  0.000  0.000  0.000  0.000
  0.000  0.296  0.035  0.443  0.226
  0.000  0.035  0.296  0.226  0.443
  0.000  0.070  0.599  0.001  0.331
  0.000  0.599  0.070  0.331  0.001
    occupations:
  0.153 -0.000 -0.000 -0.000 -0.000
 -0.000  0.293 -0.000 -0.057  0.073
 -0.000 -0.000  0.293  0.073  0.057
 -0.000 -0.057  0.073  0.227  0.000
 -0.000  0.073  0.057  0.000  0.227
   spin  2
    eigenvalues: 
  0.995  0.995  0.999  0.999  0.999
    eigenvectors:
  0.000  0.000  1.000  0.000  0.000
  0.371  0.297  0.000  0.255  0.077
  0.297  0.371  0.000  0.077  0.255
  0.001  0.331  0.000  0.052  0.617
  0.331  0.001  0.000  0.617  0.052
    occupations:
  0.999 -0.000 -0.000 -0.000 -0.000
 -0.000  0.996 -0.000  0.001 -0.001
 -0.000 -0.000  0.996 -0.001 -0.001
 -0.000  0.001 -0.001  0.998  0.000
 -0.000 -0.001 -0.001  0.000  0.998
atomic mag. moment =  -3.79245
atom    3   Tr[ns(na)] (up, down, total) =   1.23809  4.98775  6.22585
   spin  1
    eigenvalues: 
  0.178  0.178  0.186  0.348  0.348
    eigenvectors:
  0.000  0.000  1.000  0.000  0.000
  0.403  0.113  0.000  0.434  0.050
  0.113  0.403  0.000  0.050  0.434
  0.025  0.459  0.000  0.074  0.442
  0.459  0.025  0.000  0.442  0.074
    occupations:
  0.186 -0.000 -0.000 -0.000 -0.000
 -0.000  0.260 -0.000 -0.056  0.064
 -0.000 -0.000  0.260  0.064  0.056
 -0.000 -0.056  0.064  0.266  0.000
 -0.000  0.064  0.056  0.000  0.266
   spin  2
    eigenvalues: 
  0.996  0.996  0.998  0.999  0.999
    eigenvectors:
  0.000  0.000  1.000  0.000  0.000
  0.311  0.095  0.000  0.320  0.274
  0.095  0.311  0.000  0.274  0.320
  0.085  0.509  0.000  0.009  0.397
  0.509  0.085  0.000  0.397  0.009
    occupations:
  0.998 -0.000 -0.000 -0.000 -0.000
 -0.000  0.998 -0.000  0.001 -0.001
[...]
    13.9966  14.0665  14.1777  14.1777  14.3024  14.3024  14.9910  14.9911
    15.2237  15.3528  15.6356  15.6357  16.9087  16.9230  17.0464  17.1670
    17.2680  17.2680  17.3054  17.3056  17.4794  17.4794  17.5112  17.5112

     occupation numbers 
     1.0000   1.0000   1.0000   1.0000   1.0000   1.0000   1.0000   1.0000
     1.0000   1.0000   1.0000   1.0000   1.0000   1.0000   1.0000   1.0000
     1.0000   1.0000   1.0000   1.0000   1.0000   1.0000   1.0000   1.0000
     1.0000   1.0000   1.0000   1.0000   1.0000   1.0000   1.0000   1.0000
     1.0000   1.0000   1.0000   1.0000   1.0000   1.0000   1.0000   1.0000
     1.0000   1.0000   1.0000   1.0000   1.0000   1.0000   1.0000   1.0000
     1.0000   1.0000   1.0000   1.0000   1.0000   1.0000   1.0000   1.0000
     1.0000   1.0000   1.0000   1.0000   1.0000   1.0000   1.0000   1.0000
     1.0000   1.0000   1.0000   1.0000   1.0000   1.0000   1.0000   1.0000
     1.0000   1.0000   1.0000   1.0000   1.0000   1.0000   1.0000   1.0000
     1.0000   1.0000   1.0000   1.0000   1.0000   1.0000   1.0000   1.0000
     1.0000   1.0000   1.0000   1.0000   1.0000   1.0000   1.0000   1.0000
     1.0000   1.0000   1.0000   1.0000   1.0000   1.0000   1.0000   1.0000
     1.0000   1.0000   1.0000   1.0000   1.0000   1.0000   1.0000   1.0000
     1.0000   1.0000   1.0000   1.0000   1.0000   1.0000   1.0000   1.0000
     1.0000   1.0000   1.0000   1.0000   1.0000   1.0000   1.0000   1.0000
     1.0000   1.0000   1.0000   1.0000   1.0000   1.0000   1.0000   1.0000
     1.0000   1.0000   1.0000   1.0000   1.0000   1.0000   1.0000   1.0000
     1.0000   1.0000   1.0000  -0.0299  -0.0299  -0.0204  -0.0032  -0.0002
    -0.0002  -0.0000  -0.0000  -0.0000  -0.0000  -0.0000  -0.0000  -0.0000
    -0.0000  -0.0000  -0.0000  -0.0000  -0.0000  -0.0000  -0.0000  -0.0000
    -0.0000  -0.0000  -0.0000  -0.0000  -0.0000  -0.0000  -0.0000  -0.0000

          k = 0.0000 0.3849 0.0000 ( 10414 PWs)   bands (ev):

   -79.4783 -79.2887 -79.2383 -74.1948 -74.0728 -74.0562 -45.4708 -45.4189
   -45.4189 -45.2777 -45.2768 -45.2373 -45.2373 -45.1680 -45.1680 -40.3302
   -40.2807 -40.2807 -40.2095 -40.2063 -40.1629 -40.1629 -40.1451 -40.1451
   -10.5719 -10.5608 -10.5510 -10.5425 -10.5365 -10.5276 -10.5045 -10.4980
   -10.4905 -10.4881 -10.4771 -10.4757 -10.4696 -10.4688 -10.4394 -10.4317
   -10.4217 -10.4184 -10.4126 -10.4114 -10.4073 -10.4023 -10.3981 -10.3916
   -10.3906 -10.3836 -10.3721 -10.3657 -10.3613 -10.3541  -6.9149  -6.6017
    -6.4734  -6.1102  -5.8776  -5.7390  -5.6517  -5.5852  -5.5280  -5.4742
    -5.4337  -5.4066  -5.3031  -5.2697  -5.0883  -5.0584  -4.9029  -4.8430
     1.5695   1.7059   1.8955   2.1406   2.4065   2.6185   4.1860   4.2426
     4.4665   4.5056   4.6572   4.7612   4.8552   4.8879   4.9445   5.0536
     5.1060   5.2123   5.2917   5.3789   5.5919   5.9580   6.4976   6.5731
     6.6676   6.9103   7.0517   7.1333   7.2701   7.3123   7.3988   7.4446
     7.5918   7.7249   7.8122   7.9504   8.0011   8.1284   8.2404   8.3429
     8.4672   8.5819   8.6515   8.7661   8.8529   8.8871   8.9664   9.1097
     9.1897   9.2810   9.4503   9.5095   9.6333   9.7081   9.7390   9.7932
     9.8388   9.8869   9.9474   9.9935  10.0716  10.1390  10.2477  10.3305
    10.4945  10.6898  10.8638  10.9462  11.1063  11.1861  11.3789  11.4543
    11.5101  11.7213  11.9322  13.6936  13.7915  13.8334  13.9437  14.0186
    14.0864  14.1162  14.1762  14.2198  14.4241  14.5209  14.5852  14.9245
    15.0765  15.3092  15.5346  15.7672  15.8998  16.0565  16.1684  16.3218
    16.5188  16.5467  16.8188  17.2174  17.3097  17.3303  17.3839  17.6096

     occupation numbers 
     1.0000   1.0000   1.0000   1.0000   1.0000   1.0000   1.0000   1.0000
     1.0000   1.0000   1.0000   1.0000   1.0000   1.0000   1.0000   1.0000
     1.0000   1.0000   1.0000   1.0000   1.0000   1.0000   1.0000   1.0000
     1.0000   1.0000   1.0000   1.0000   1.0000   1.0000   1.0000   1.0000
     1.0000   1.0000   1.0000   1.0000   1.0000   1.0000   1.0000   1.0000
     1.0000   1.0000   1.0000   1.0000   1.0000   1.0000   1.0000   1.0000
     1.0000   1.0000   1.0000   1.0000   1.0000   1.0000   1.0000   1.0000
     1.0000   1.0000   1.0000   1.0000   1.0000   1.0000   1.0000   1.0000
     1.0000   1.0000   1.0000   1.0000   1.0000   1.0000   1.0000   1.0000
     1.0000   1.0000   1.0000   1.0000   1.0000   1.0000   1.0000   1.0000
     1.0000   1.0000   1.0000   1.0000   1.0000   1.0000   1.0000   1.0000
     1.0000   1.0000   1.0000   1.0000   1.0000   1.0000   1.0000   1.0000
     1.0000   1.0000   1.0000   1.0000   1.0000   1.0000   1.0000   1.0000
     1.0000   1.0000   1.0000   1.0000   1.0000   1.0000   1.0000   1.0000
     1.0000   1.0000   1.0000   1.0000   1.0000   1.0000   1.0000   1.0000
     1.0000   1.0000   1.0000   1.0000   1.0000   1.0000   1.0000   1.0000
     1.0000   1.0000   1.0000   1.0000   1.0000   1.0000   1.0000   1.0000
     1.0000   1.0000   1.0000   1.0000   1.0000   1.0000   1.0000   1.0000
     1.0000   1.0000   1.0000   0.0461  -0.0317  -0.0181  -0.0011  -0.0001
    -0.0000  -0.0000  -0.0000  -0.0000  -0.0000  -0.0000  -0.0000  -0.0000
    -0.0000  -0.0000  -0.0000  -0.0000  -0.0000  -0.0000  -0.0000  -0.0000
    -0.0000  -0.0000  -0.0000  -0.0000  -0.0000  -0.0000  -0.0000  -0.0000

          k = 0.0000 0.3849-0.2026 ( 10438 PWs)   bands (ev):

   -79.4783 -79.2887 -79.2383 -74.1948 -74.0728 -74.0562 -45.4708 -45.4189
   -45.4189 -45.2777 -45.2768 -45.2373 -45.2373 -45.1680 -45.1680 -40.3302
   -40.2807 -40.2807 -40.2095 -40.2063 -40.1629 -40.1629 -40.1451 -40.1451
   -10.5746 -10.5562 -10.5521 -10.5408 -10.5371 -10.5280 -10.5066 -10.4973
   -10.4916 -10.4900 -10.4806 -10.4756 -10.4675 -10.4643 -10.4395 -10.4320
   -10.4211 -10.4160 -10.4151 -10.4120 -10.4074 -10.4011 -10.3992 -10.3924
   -10.3900 -10.3837 -10.3723 -10.3655 -10.3628 -10.3529  -6.8810  -6.7286
    -6.2923  -6.1487  -5.9815  -5.7072  -5.6564  -5.5961  -5.5255  -5.4450
    -5.4252  -5.3762  -5.3091  -5.2871  -5.0926  -5.0643  -4.9021  -4.8430
     1.5629   1.7543   1.8486   2.1234   2.4293   2.6184   4.1861   4.2440
     4.4699   4.5051   4.6538   4.7608   4.8562   4.8879   4.9369   5.0544
     5.1097   5.2195   5.2931   5.3788   5.5911   5.9780   6.3702   6.6146
     6.7987   6.9076   6.9981   7.1392   7.2336   7.3192   7.3739   7.5181
     7.5474   7.6441   7.7780   7.9452   8.0385   8.0813   8.2530   8.4646
     8.5011   8.5615   8.7091   8.7972   8.8857   8.9400   8.9948   9.1114
     9.1741   9.2338   9.3087   9.5282   9.5626   9.6263   9.6988   9.7968
     9.8648   9.8993   9.9961  10.0517  10.0944  10.1299  10.2539  10.3656
    10.4715  10.6306  10.8420  10.9178  11.1210  11.2410  11.3767  11.4938
    11.5573  11.6662  11.9263  13.6935  13.7853  13.8317  13.9471  14.0199
    14.0904  14.1158  14.1713  14.2205  14.4230  14.5173  14.6087  14.9036
    15.0553  15.4056  15.5737  15.7054  15.8328  15.8946  16.1335  16.3753
    16.6618  16.6819  16.9709  17.0962  17.1455  17.2903  17.3606  17.6100

     occupation numbers 
     1.0000   1.0000   1.0000   1.0000   1.0000   1.0000   1.0000   1.0000
     1.0000   1.0000   1.0000   1.0000   1.0000   1.0000   1.0000   1.0000
     1.0000   1.0000   1.0000   1.0000   1.0000   1.0000   1.0000   1.0000
     1.0000   1.0000   1.0000   1.0000   1.0000   1.0000   1.0000   1.0000
     1.0000   1.0000   1.0000   1.0000   1.0000   1.0000   1.0000   1.0000
     1.0000   1.0000   1.0000   1.0000   1.0000   1.0000   1.0000   1.0000
     1.0000   1.0000   1.0000   1.0000   1.0000   1.0000   1.0000   1.0000
     1.0000   1.0000   1.0000   1.0000   1.0000   1.0000   1.0000   1.0000
     1.0000   1.0000   1.0000   1.0000   1.0000   1.0000   1.0000   1.0000
     1.0000   1.0000   1.0000   1.0000   1.0000   1.0000   1.0000   1.0000
     1.0000   1.0000   1.0000   1.0000   1.0000   1.0000   1.0000   1.0000
     1.0000   1.0000   1.0000   1.0000   1.0000   1.0000   1.0000   1.0000
     1.0000   1.0000   1.0000   1.0000   1.0000   1.0000   1.0000   1.0000
     1.0000   1.0000   1.0000   1.0000   1.0000   1.0000   1.0000   1.0000
     1.0000   1.0000   1.0000   1.0000   1.0000   1.0000   1.0000   1.0000
     1.0000   1.0000   1.0000   1.0000   1.0000   1.0000   1.0000   1.0000
     1.0000   1.0000   1.0000   1.0000   1.0000   1.0000   1.0000   1.0000
     1.0000   1.0000   1.0000   1.0000   1.0000   1.0000   1.0000   1.0000
     1.0000   1.0000   1.0000   0.0464  -0.0332  -0.0186  -0.0009  -0.0001
    -0.0000  -0.0000  -0.0000  -0.0000  -0.0000  -0.0000  -0.0000  -0.0000
    -0.0000  -0.0000  -0.0000  -0.0000  -0.0000  -0.0000  -0.0000  -0.0000
    -0.0000  -0.0000  -0.0000  -0.0000  -0.0000  -0.0000  -0.0000  -0.0000

          k = 0.3333 0.5774 0.0000 ( 10428 PWs)   bands (ev):

   -79.4783 -79.2887 -79.2383 -74.1948 -74.0728 -74.0562 -45.4708 -45.4189
   -45.4189 -45.2777 -45.2768 -45.2373 -45.2373 -45.1680 -45.1680 -40.3302
   -40.2807 -40.2807 -40.2095 -40.2063 -40.1629 -40.1629 -40.1451 -40.1451
   -10.5536 -10.5530 -10.5457 -10.5439 -10.5420 -10.5294 -10.4981 -10.4909
   -10.4903 -10.4830 -10.4825 -10.4794 -10.4650 -10.4580 -10.4377 -10.4284
   -10.4271 -10.4176 -10.4100 -10.4093 -10.4064 -10.4053 -10.4013 -10.3971
   -10.3910 -10.3823 -10.3760 -10.3703 -10.3689 -10.3637  -6.3875  -6.3683
    -6.3654  -6.2540  -6.0695  -6.0622  -5.6742  -5.6719  -5.6545  -5.4462
    -5.4090  -5.3858  -5.3787  -5.3389  -5.2338  -4.9990  -4.9099  -4.8824
     1.7815   1.8627   1.9091   2.0097   2.0113   2.1445   4.2282   4.3069
     4.4386   4.6084   4.7165   4.7797   4.9109   4.9479   5.0614   5.0641
     5.1564   5.2308   5.2749   5.3362   5.3581   6.5399   6.6273   6.7262
     6.8846   6.9601   7.0568   7.3313   7.3349   7.3739   7.6704   7.6824
     7.7255   7.8776   7.9679   8.0061   8.1312   8.1413   8.2088   8.3834
     8.4615   8.4930   8.6754   8.7437   8.7764   8.8855   8.9336   9.0360
     9.1496   9.2190   9.2854   9.4202   9.4434   9.5003   9.7962   9.8529
     9.9201  10.0578  10.0772  10.0839  10.1583  10.1765  10.1978  10.4380
    10.4439  10.6300  10.9149  11.0134  11.0492  11.0851  11.3276  11.3690
    11.3716  11.5704  11.6269  13.6845  13.7698  13.8645  13.9696  14.0709
    14.1485  14.1801  14.2031  14.2471  14.4280  14.4755  14.5804  14.9489
    15.0275  15.0305  15.4888  15.5446  15.5960  15.8179  15.8443  15.8548
    16.5051  16.6349  16.7002  16.9078  16.9147  17.3281  17.3644  17.5707

     occupation numbers 
     1.0000   1.0000   1.0000   1.0000   1.0000   1.0000   1.0000   1.0000
     1.0000   1.0000   1.0000   1.0000   1.0000   1.0000   1.0000   1.0000
     1.0000   1.0000   1.0000   1.0000   1.0000   1.0000   1.0000   1.0000
     1.0000   1.0000   1.0000   1.0000   1.0000   1.0000   1.0000   1.0000
     1.0000   1.0000   1.0000   1.0000   1.0000   1.0000   1.0000   1.0000
     1.0000   1.0000   1.0000   1.0000   1.0000   1.0000   1.0000   1.0000
     1.0000   1.0000   1.0000   1.0000   1.0000   1.0000   1.0000   1.0000
     1.0000   1.0000   1.0000   1.0000   1.0000   1.0000   1.0000   1.0000
     1.0000   1.0000   1.0000   1.0000   1.0000   1.0000   1.0000   1.0000
     1.0000   1.0000   1.0000   1.0000   1.0000   1.0000   1.0000   1.0000
     1.0000   1.0000   1.0000   1.0000   1.0000   1.0000   1.0000   1.0000
     1.0000   1.0000   1.0000   1.0000   1.0000   1.0000   1.0000   1.0000
     1.0000   1.0000   1.0000   1.0000   1.0000   1.0000   1.0000   1.0000
     1.0000   1.0000   1.0000   1.0000   1.0000   1.0000   1.0000   1.0000
     1.0000   1.0000   1.0000   1.0000   1.0000   1.0000   1.0000   1.0000
     1.0000   1.0000   1.0000   1.0000   1.0000   1.0000   1.0000   1.0000
     1.0000   1.0000   1.0000   1.0000   1.0000   1.0000   1.0000   1.0000
     1.0000   1.0000   1.0000   1.0000   1.0000   1.0000   1.0000   1.0000
     1.0000   1.0000   1.0000   0.0730  -0.0354  -0.0097  -0.0004  -0.0000
    -0.0000  -0.0000  -0.0000  -0.0000  -0.0000  -0.0000  -0.0000  -0.0000
    -0.0000  -0.0000  -0.0000  -0.0000  -0.0000  -0.0000  -0.0000  -0.0000
    -0.0000  -0.0000  -0.0000  -0.0000  -0.0000  -0.0000  -0.0000  -0.0000

          k = 0.3333 0.5774-0.2026 ( 10410 PWs)   bands (ev):

   -79.4783 -79.2887 -79.2383 -74.1948 -74.0728 -74.0562 -45.4708 -45.4189
   -45.4189 -45.2777 -45.2768 -45.2373 -45.2373 -45.1680 -45.1680 -40.3302
   -40.2807 -40.2807 -40.2095 -40.2063 -40.1629 -40.1629 -40.1451 -40.1451
   -10.5532 -10.5521 -10.5467 -10.5424 -10.5424 -10.5324 -10.4923 -10.4901
   -10.4900 -10.4843 -10.4836 -10.4827 -10.4644 -10.4586 -10.4369 -10.4299
   -10.4239 -10.4211 -10.4086 -10.4081 -10.4066 -10.4043 -10.4020 -10.3981
   -10.3901 -10.3830 -10.3758 -10.3702 -10.3689 -10.3638  -6.3847  -6.3622
    -6.3591  -6.2680  -6.0820  -6.0757  -5.6270  -5.6079  -5.5930  -5.5430
    -5.5365  -5.4241  -5.3174  -5.3040  -5.2092  -5.0019  -4.9112  -4.8844
     1.7883   1.8688   1.9301   1.9889   2.0015   2.1366   4.2284   4.3115
     4.4383   4.6122   4.6988   4.7933   4.9129   4.9591   5.0637   5.0801
     5.1512   5.2337   5.2716   5.3263   5.3521   6.5289   6.6749   6.6912
     6.8261   6.9508   7.0625   7.2691   7.3044   7.5660   7.6301   7.6640
     7.7606   7.9053   7.9749   8.0329   8.0870   8.1499   8.1836   8.4391
     8.4458   8.5398   8.6276   8.6568   8.6798   8.8637   8.8728   9.0631
     9.1756   9.2571   9.2747   9.5529   9.5532   9.6431   9.7638   9.8047
     9.8443  10.0144  10.0421  10.0775  10.1237  10.1949  10.2221  10.4088
    10.4151  10.6362  10.8704  11.0207  11.0523  11.1303  11.3214  11.3566
    11.3670  11.5827  11.6462  13.6686  13.7772  13.8602  13.9793  14.0790
    14.1284  14.1825  14.2134  14.2531  14.4316  14.4742  14.5999  15.0304
    15.0319  15.0649  15.4720  15.5266  15.5466  15.6939  15.6946  15.7186
    16.8351  16.8506  16.8567  16.8602  16.8918  16.9618  17.3465  17.4047

     occupation numbers 
     1.0000   1.0000   1.0000   1.0000   1.0000   1.0000   1.0000   1.0000
     1.0000   1.0000   1.0000   1.0000   1.0000   1.0000   1.0000   1.0000
     1.0000   1.0000   1.0000   1.0000   1.0000   1.0000   1.0000   1.0000
     1.0000   1.0000   1.0000   1.0000   1.0000   1.0000   1.0000   1.0000
     1.0000   1.0000   1.0000   1.0000   1.0000   1.0000   1.0000   1.0000
     1.0000   1.0000   1.0000   1.0000   1.0000   1.0000   1.0000   1.0000
     1.0000   1.0000   1.0000   1.0000   1.0000   1.0000   1.0000   1.0000
     1.0000   1.0000   1.0000   1.0000   1.0000   1.0000   1.0000   1.0000
     1.0000   1.0000   1.0000   1.0000   1.0000   1.0000   1.0000   1.0000
     1.0000   1.0000   1.0000   1.0000   1.0000   1.0000   1.0000   1.0000
     1.0000   1.0000   1.0000   1.0000   1.0000   1.0000   1.0000   1.0000
     1.0000   1.0000   1.0000   1.0000   1.0000   1.0000   1.0000   1.0000
     1.0000   1.0000   1.0000   1.0000   1.0000   1.0000   1.0000   1.0000
     1.0000   1.0000   1.0000   1.0000   1.0000   1.0000   1.0000   1.0000
     1.0000   1.0000   1.0000   1.0000   1.0000   1.0000   1.0000   1.0000
     1.0000   1.0000   1.0000   1.0000   1.0000   1.0000   1.0000   1.0000
     1.0000   1.0000   1.0000   1.0000   1.0000   1.0000   1.0000   1.0000
     1.0000   1.0000   1.0000   1.0000   1.0000   1.0000   1.0000   1.0000
     1.0000   1.0000   1.0000   0.1304  -0.0347  -0.0107  -0.0003  -0.0000
    -0.0000  -0.0000  -0.0000  -0.0000  -0.0000  -0.0000  -0.0000  -0.0000
    -0.0000  -0.0000  -0.0000  -0.0000  -0.0000  -0.0000  -0.0000  -0.0000
    -0.0000  -0.0000  -0.0000  -0.0000  -0.0000  -0.0000  -0.0000  -0.0000

     the Fermi energy is    13.6007 ev

!    total energy              =   -3194.29849561 Ry
     estimated scf accuracy    <       0.00000004 Ry
     smearing contrib. (-TS)   =       0.00178917 Ry
     internal energy E=F+TS    =   -3194.30028477 Ry

     The total energy is F=E-TS. E is the sum of the following terms:
     one-electron contribution =   -1263.51671310 Ry
     hartree contribution      =     822.90781369 Ry
     xc contribution           =    -695.89966630 Ry
     ewald contribution        =   -2058.48132505 Ry
     Hubbard energy            =       0.68960599 Ry

     total magnetization       =    -0.00 Bohr mag/cell
     absolute magnetization    =    28.44 Bohr mag/cell

     convergence has been achieved in  26 iterations

     Writing output data file /home/aldair1809/Documentos/QE/4BFO/temp_tipoA/scf/bifeo3.save/

     init_run     :     71.79s CPU     72.79s WALL (       1 calls)
     electrons    :   5785.29s CPU   5865.69s WALL (       1 calls)

     Called by init_run:
     wfcinit      :     67.11s CPU     67.59s WALL (       1 calls)
     wfcinit:atom :      0.06s CPU      0.06s WALL (      12 calls)
     wfcinit:wfcr :     47.54s CPU     47.97s WALL (      12 calls)
     potinit      :      0.98s CPU      1.04s WALL (       1 calls)
     hinit0       :      1.48s CPU      1.49s WALL (       1 calls)

     Called by electrons:
     c_bands      :   5212.10s CPU   5259.10s WALL (      26 calls)
     sum_band     :    501.42s CPU    520.85s WALL (      26 calls)
     v_of_rho     :      9.32s CPU      9.58s WALL (      27 calls)
     v_h          :      0.37s CPU      0.39s WALL (      27 calls)
     v_xc         :      8.95s CPU      9.19s WALL (      27 calls)
     newd         :     61.86s CPU     75.77s WALL (      27 calls)
     mix_rho      :      1.90s CPU      1.96s WALL (      26 calls)

     Called by c_bands:
     init_us_2    :      7.08s CPU      7.10s WALL (     648 calls)
     ccgdiagg     :   3915.43s CPU   3951.99s WALL (     312 calls)
     wfcrot       :   1337.93s CPU   1348.73s WALL (     312 calls)

     Called by sum_band:
     sum_band:wei :      0.17s CPU      0.17s WALL (      26 calls)
     sum_band:loo :    363.50s CPU    368.57s WALL (      26 calls)
     sum_band:buf :      1.27s CPU      1.27s WALL (     312 calls)
     sum_band:ini :      3.26s CPU      3.27s WALL (     312 calls)
     sum_band:cal :    259.42s CPU    259.99s WALL (     312 calls)
     sum_band:bec :      1.58s CPU      1.59s WALL (     312 calls)
     addusdens    :    118.97s CPU    133.20s WALL (      26 calls)
     addusd:skk   :      0.31s CPU      0.33s WALL (     104 calls)
     addusd:dgemm :     71.51s CPU     83.23s WALL (     208 calls)
     addusd:qvan2 :     46.22s CPU     46.24s WALL (     208 calls)

     Called by *cgdiagg:
     h_psi        :   2512.36s CPU   2550.61s WALL (  122405 calls)
     s_psi        :   1458.57s CPU   1462.55s WALL (  244510 calls)

     Called by h_psi:
     h_psi:calbec :    855.43s CPU    863.35s WALL (  122405 calls)
     vloc_psi     :    621.64s CPU    649.26s WALL (  122405 calls)
     add_vuspsi   :    854.89s CPU    856.45s WALL (  122405 calls)
     vhpsi        :    175.64s CPU    177.03s WALL (  122405 calls)
     hs_1psi      :   2334.29s CPU   2364.57s WALL (  122093 calls)
     s_1psi       :   1176.21s CPU   1180.63s WALL (  122093 calls)

     General routines
     calbec       :   1841.05s CPU   1853.77s WALL (  367539 calls)
     fft          :      7.05s CPU      7.43s WALL (     669 calls)
     ffts         :      0.29s CPU      0.32s WALL (     106 calls)
     fftw         :    640.49s CPU    670.87s WALL (  409594 calls)
     interpolate  :      0.78s CPU      0.82s WALL (      54 calls)
     davcio       :      0.00s CPU      0.29s WALL (      12 calls)

     Parallel routines
     fft_scatt_xy :     82.16s CPU     87.86s WALL (  410369 calls)
     fft_scatt_yz :    128.81s CPU    140.54s WALL (  410369 calls)

     Hubbard U routines
     new_ns       :     15.41s CPU     15.45s WALL (      26 calls)
     new_ns       :     15.41s CPU     15.45s WALL (      26 calls)
     vhpsi        :    175.64s CPU    177.03s WALL (  122405 calls)

     PWSCF        :      1h37m CPU      1h39m WALL


   This run was terminated on:  18:32:32  15Dec2024            

=------------------------------------------------------------------------------=
   JOB DONE.
=------------------------------------------------------------------------------=
