
     Program PWSCF v.6.7MaX starts on 24Oct2024 at 13: 3:52 

     This program is part of the open-source Quantum ESPRESSO suite
     for quantum simulation of materials; please cite
         "P. Giannozzi et al., J. Phys.:Condens. Matter 21 395502 (2009);
         "P. Giannozzi et al., J. Phys.:Condens. Matter 29 465901 (2017);
          URL http://www.quantum-espresso.org", 
     in publications or presentations arising from this work. More details at
     http://www.quantum-espresso.org/quote

     Parallel version (MPI), running on     4 processors

     MPI processes distributed on     1 nodes
     R & G space division:  proc/nbgrp/npool/nimage =       4
     Waiting for input...
     Reading input from standard input

     Current dimensions of program PWSCF are:
     Max number of different atomic species (ntypx) = 10
     Max number of k-points (npk) =  40000
     Max angular momentum in pseudopotentials (lmaxx) =  3
     Message from routine iosys:
     wrong startingpot: use default (1)

     Subspace diagonalization in iterative solution of the eigenvalue problem:
     one sub-group per band group will be used
     scalapack distributed-memory algorithm (size of sub-group:  2*  2 procs)

     Found symmetry operation: I + ( -0.5000 -0.5000  0.0000)
     This is a supercell, fractional translations are disabled

     Parallelization info
     --------------------
     sticks:   dense  smooth     PW     G-vecs:    dense   smooth      PW
     Min         355     175     44                10024     3536     446
     Max         357     179     45                10025     3537     449
     Sum        1425     709    177                40099    14147    1791



     bravais-lattice index     =            1
     lattice parameter (alat)  =      14.9137  a.u.
     unit-cell volume          =    3317.0944 (a.u.)^3
     number of atoms/cell      =           40
     number of atomic types    =            4
     number of electrons       =       392.00
     number of Kohn-Sham states=          235
     kinetic-energy cutoff     =      10.0000  Ry
     charge density cutoff     =      80.0000  Ry
     scf convergence threshold =      1.0E-05
     mixing beta               =       0.4000
     number of iterations used =            8  plain     mixing
     Exchange-correlation=  SLA  PW   PBX  PBC
                           (   1   4   3   4   0   0   0)

     celldm(1)=  14.913719  celldm(2)=   0.000000  celldm(3)=   0.000000
     celldm(4)=   0.000000  celldm(5)=   0.000000  celldm(6)=   0.000000

     crystal axes: (cart. coord. in units of alat)
               a(1) = (   1.000000   0.000000   0.000000 )  
               a(2) = (   0.000000   1.000000   0.000000 )  
               a(3) = (   0.000000   0.000000   1.000000 )  

     reciprocal axes: (cart. coord. in units 2 pi/alat)
               b(1) = (  1.000000  0.000000  0.000000 )  
               b(2) = (  0.000000  1.000000  0.000000 )  
               b(3) = (  0.000000  0.000000  1.000000 )  


     PseudoPot. # 1 for O  read from file:
     /home/aldair1809/Programas/QE/q-e-qe-7.3/pseudo/o_pbe_v1.2.uspp.F.UPF
     MD5 check sum: 734c27235a0248c51dbae37a1fbe46ec
     Pseudo is Ultrasoft + core correction, Zval =  6.0
     Generated by new atomic code, or converted to UPF format
     Using radial grid of  737 points,  5 beta functions with: 
                l(1) =   0
                l(2) =   0
                l(3) =   1
                l(4) =   1
                l(5) =   2
     Q(r) pseudized with  8 coefficients,  rinner =    0.900   0.900   0.900
                                                       0.900   0.900

     PseudoPot. # 2 for Bi read from file:
     /home/aldair1809/Programas/QE/q-e-qe-7.3/pseudo/bi_pbe_v1.uspp.F.UPF
     MD5 check sum: cceb9f28ec65b6d7ff33140f5b0b1758
     Pseudo is Ultrasoft + core correction, Zval = 15.0
     Generated by new atomic code, or converted to UPF format
     Using radial grid of  899 points,  6 beta functions with: 
                l(1) =   0
                l(2) =   0
                l(3) =   1
                l(4) =   1
                l(5) =   2
                l(6) =   2
     Q(r) pseudized with  6 coefficients,  rinner =    1.000   1.000   1.000
                                                       1.000   1.000

     PseudoPot. # 3 for Fe read from file:
     /home/aldair1809/Programas/QE/q-e-qe-7.3/pseudo/fe_pbe_v1.5.uspp.F.UPF
     MD5 check sum: a130daea23fe5165f5d574ae7f82ed95
     Pseudo is Ultrasoft + core correction, Zval = 16.0
     Generated by new atomic code, or converted to UPF format
     Using radial grid of  861 points,  6 beta functions with: 
                l(1) =   0
                l(2) =   0
                l(3) =   1
                l(4) =   1
                l(5) =   2
                l(6) =   2
     Q(r) pseudized with  8 coefficients,  rinner =    1.000   1.000   1.000
                                                       1.000   1.000

     PseudoPot. # 4 for Fe read from file:
     /home/aldair1809/Programas/QE/q-e-qe-7.3/pseudo/fe_pbe_v1.5.uspp.F.UPF
     MD5 check sum: a130daea23fe5165f5d574ae7f82ed95
     Pseudo is Ultrasoft + core correction, Zval = 16.0
     Generated by new atomic code, or converted to UPF format
     Using radial grid of  861 points,  6 beta functions with: 
                l(1) =   0
                l(2) =   0
                l(3) =   1
                l(4) =   1
                l(5) =   2
                l(6) =   2
     Q(r) pseudized with  8 coefficients,  rinner =    1.000   1.000   1.000
                                                       1.000   1.000

     atomic species   valence    mass     pseudopotential
        O              6.00    15.99940     O ( 1.00)
        Bi            15.00   208.98040     Bi( 1.00)
        Fe1           16.00    55.84500     Fe( 1.00)
        Fe2           16.00    55.84500     Fe( 1.00)

     Starting magnetic structure 
     atomic species   magnetization
        O            0.000
        Bi           0.000
        Fe1         -0.800
        Fe2          0.800

      8 Sym. Ops., with inversion, found


                                    s                        frac. trans.

      isym =  1     identity                                     

 cryst.   s( 1) = (     1          0          0      )
                  (     0          1          0      )
                  (     0          0          1      )

 cart.    s( 1) = (  1.0000000  0.0000000  0.0000000 )
                  (  0.0000000  1.0000000  0.0000000 )
                  (  0.0000000  0.0000000  1.0000000 )


      isym =  2     180 deg rotation - cart. axis [0,0,1]        

 cryst.   s( 2) = (    -1          0          0      )
                  (     0         -1          0      )
                  (     0          0          1      )

 cart.    s( 2) = ( -1.0000000  0.0000000  0.0000000 )
                  (  0.0000000 -1.0000000  0.0000000 )
                  (  0.0000000  0.0000000  1.0000000 )


      isym =  3     180 deg rotation - cart. axis [1,1,0]        

 cryst.   s( 3) = (     0          1          0      )
                  (     1          0          0      )
                  (     0          0         -1      )

 cart.    s( 3) = (  0.0000000  1.0000000  0.0000000 )
                  (  1.0000000  0.0000000  0.0000000 )
                  (  0.0000000  0.0000000 -1.0000000 )


      isym =  4     180 deg rotation - cart. axis [1,-1,0]       

 cryst.   s( 4) = (     0         -1          0      )
                  (    -1          0          0      )
                  (     0          0         -1      )

 cart.    s( 4) = (  0.0000000 -1.0000000  0.0000000 )
                  ( -1.0000000  0.0000000  0.0000000 )
                  (  0.0000000  0.0000000 -1.0000000 )


      isym =  5     inversion                                    

 cryst.   s( 5) = (    -1          0          0      )
                  (     0         -1          0      )
                  (     0          0         -1      )

 cart.    s( 5) = ( -1.0000000  0.0000000  0.0000000 )
                  (  0.0000000 -1.0000000  0.0000000 )
                  (  0.0000000  0.0000000 -1.0000000 )


      isym =  6     inv. 180 deg rotation - cart. axis [0,0,1]   

 cryst.   s( 6) = (     1          0          0      )
                  (     0          1          0      )
                  (     0          0         -1      )

 cart.    s( 6) = (  1.0000000  0.0000000  0.0000000 )
                  (  0.0000000  1.0000000  0.0000000 )
                  (  0.0000000  0.0000000 -1.0000000 )


      isym =  7     inv. 180 deg rotation - cart. axis [1,1,0]   

 cryst.   s( 7) = (     0         -1          0      )
                  (    -1          0          0      )
                  (     0          0          1      )

 cart.    s( 7) = (  0.0000000 -1.0000000  0.0000000 )
                  ( -1.0000000  0.0000000  0.0000000 )
                  (  0.0000000  0.0000000  1.0000000 )


      isym =  8     inv. 180 deg rotation - cart. axis [1,-1,0]  

 cryst.   s( 8) = (     0          1          0      )
                  (     1          0          0      )
                  (     0          0          1      )

 cart.    s( 8) = (  0.0000000  1.0000000  0.0000000 )
                  (  1.0000000  0.0000000  0.0000000 )
                  (  0.0000000  0.0000000  1.0000000 )


     point group D_2h (mmm) 
     there are  8 classes
     the character table:

       E     C2    C2'   C2''  i     s_v   s_v'  s_v''
A_g    1.00  1.00  1.00  1.00  1.00  1.00  1.00  1.00
B_1g   1.00  1.00 -1.00 -1.00  1.00  1.00 -1.00 -1.00
B_2g   1.00 -1.00  1.00 -1.00  1.00 -1.00  1.00 -1.00
B_3g   1.00 -1.00 -1.00  1.00  1.00 -1.00 -1.00  1.00
A_u    1.00  1.00  1.00  1.00 -1.00 -1.00 -1.00 -1.00
B_1u   1.00  1.00 -1.00 -1.00 -1.00 -1.00  1.00  1.00
B_2u   1.00 -1.00  1.00 -1.00 -1.00  1.00 -1.00  1.00
B_3u   1.00 -1.00 -1.00  1.00 -1.00  1.00  1.00 -1.00

     the symmetry operations in each class and the name of the first element:

     E        1
          identity                                               
     C2       2
          180 deg rotation - cart. axis [0,0,1]                  
     C2'      4
          180 deg rotation - cart. axis [1,-1,0]                 
     C2''     3
          180 deg rotation - cart. axis [1,1,0]                  
     i        5
          inversion                                              
     s_v      6
          inv. 180 deg rotation - cart. axis [0,0,1]             
     s_v'     8
          inv. 180 deg rotation - cart. axis [1,-1,0]            
     s_v''    7
          inv. 180 deg rotation - cart. axis [1,1,0]             

   Cartesian axes

     site n.     atom                  positions (alat units)
         1           Bi  tau(   1) = (   0.0000000   0.0000000   0.0000000  )
         2           Bi  tau(   2) = (   0.5000000   0.5000000   0.0000000  )
         3           Bi  tau(   3) = (   0.5000000   0.0000000   0.0000000  )
         4           Bi  tau(   4) = (   0.0000000   0.5000000   0.5000000  )
         5           Bi  tau(   5) = (   0.0000000   0.0000000   0.5000000  )
         6           Bi  tau(   6) = (   0.5000000   0.5000000   0.5000000  )
         7           Bi  tau(   7) = (   0.5000000   0.0000000   0.5000000  )
         8           Bi  tau(   8) = (   0.0000000   0.5000000   0.0000000  )
         9           Fe2 tau(   9) = (   0.2500000   0.2500000   0.2500000  )
        10           Fe2 tau(  10) = (   0.7500000   0.7500000   0.2500000  )
        11           Fe1 tau(  11) = (   0.7500000   0.2500000   0.2500000  )
        12           Fe1 tau(  12) = (   0.2500000   0.7500000   0.7500000  )
        13           Fe2 tau(  13) = (   0.2500000   0.2500000   0.7500000  )
        14           Fe2 tau(  14) = (   0.7500000   0.7500000   0.7500000  )
        15           Fe1 tau(  15) = (   0.7500000   0.2500000   0.7500000  )
        16           Fe1 tau(  16) = (   0.2500000   0.7500000   0.2500000  )
        17           O   tau(  17) = (   0.2500000   0.2500000   0.0000000  )
        18           O   tau(  18) = (   0.2500000   0.0000000   0.2500000  )
        19           O   tau(  19) = (   0.0000000   0.2500000   0.2500000  )
        20           O   tau(  20) = (   0.7500000   0.7500000   0.0000000  )
        21           O   tau(  21) = (   0.7500000   0.2500000   0.0000000  )
        22           O   tau(  22) = (   0.2500000   0.7500000   0.5000000  )
        23           O   tau(  23) = (   0.2500000   0.2500000   0.5000000  )
        24           O   tau(  24) = (   0.7500000   0.7500000   0.5000000  )
        25           O   tau(  25) = (   0.7500000   0.2500000   0.5000000  )
        26           O   tau(  26) = (   0.2500000   0.7500000   0.0000000  )
        27           O   tau(  27) = (   0.7500000   0.5000000   0.2500000  )
        28           O   tau(  28) = (   0.7500000   0.0000000   0.2500000  )
        29           O   tau(  29) = (   0.2500000   0.5000000   0.7500000  )
        30           O   tau(  30) = (   0.2500000   0.0000000   0.7500000  )
        31           O   tau(  31) = (   0.7500000   0.5000000   0.7500000  )
        32           O   tau(  32) = (   0.7500000   0.0000000   0.7500000  )
        33           O   tau(  33) = (   0.2500000   0.5000000   0.2500000  )
        34           O   tau(  34) = (   0.5000000   0.7500000   0.2500000  )
        35           O   tau(  35) = (   0.5000000   0.2500000   0.2500000  )
        36           O   tau(  36) = (   0.0000000   0.7500000   0.7500000  )
        37           O   tau(  37) = (   0.0000000   0.2500000   0.7500000  )
        38           O   tau(  38) = (   0.5000000   0.7500000   0.7500000  )
        39           O   tau(  39) = (   0.5000000   0.2500000   0.7500000  )
        40           O   tau(  40) = (   0.0000000   0.7500000   0.2500000  )

   Crystallographic axes

     site n.     atom                  positions (cryst. coord.)
         1           Bi  tau(   1) = (  0.0000000  0.0000000  0.0000000  )
         2           Bi  tau(   2) = (  0.5000000  0.5000000  0.0000000  )
         3           Bi  tau(   3) = (  0.5000000  0.0000000  0.0000000  )
         4           Bi  tau(   4) = (  0.0000000  0.5000000  0.5000000  )
         5           Bi  tau(   5) = (  0.0000000  0.0000000  0.5000000  )
         6           Bi  tau(   6) = (  0.5000000  0.5000000  0.5000000  )
         7           Bi  tau(   7) = (  0.5000000  0.0000000  0.5000000  )
         8           Bi  tau(   8) = (  0.0000000  0.5000000  0.0000000  )
         9           Fe2 tau(   9) = (  0.2500000  0.2500000  0.2500000  )
        10           Fe2 tau(  10) = (  0.7500000  0.7500000  0.2500000  )
        11           Fe1 tau(  11) = (  0.7500000  0.2500000  0.2500000  )
        12           Fe1 tau(  12) = (  0.2500000  0.7500000  0.7500000  )
        13           Fe2 tau(  13) = (  0.2500000  0.2500000  0.7500000  )
        14           Fe2 tau(  14) = (  0.7500000  0.7500000  0.7500000  )
        15           Fe1 tau(  15) = (  0.7500000  0.2500000  0.7500000  )
        16           Fe1 tau(  16) = (  0.2500000  0.7500000  0.2500000  )
        17           O   tau(  17) = (  0.2500000  0.2500000  0.0000000  )
        18           O   tau(  18) = (  0.2500000  0.0000000  0.2500000  )
        19           O   tau(  19) = (  0.0000000  0.2500000  0.2500000  )
        20           O   tau(  20) = (  0.7500000  0.7500000  0.0000000  )
        21           O   tau(  21) = (  0.7500000  0.2500000  0.0000000  )
        22           O   tau(  22) = (  0.2500000  0.7500000  0.5000000  )
        23           O   tau(  23) = (  0.2500000  0.2500000  0.5000000  )
        24           O   tau(  24) = (  0.7500000  0.7500000  0.5000000  )
        25           O   tau(  25) = (  0.7500000  0.2500000  0.5000000  )
        26           O   tau(  26) = (  0.2500000  0.7500000  0.0000000  )
        27           O   tau(  27) = (  0.7500000  0.5000000  0.2500000  )
        28           O   tau(  28) = (  0.7500000  0.0000000  0.2500000  )
        29           O   tau(  29) = (  0.2500000  0.5000000  0.7500000  )
        30           O   tau(  30) = (  0.2500000  0.0000000  0.7500000  )
        31           O   tau(  31) = (  0.7500000  0.5000000  0.7500000  )
        32           O   tau(  32) = (  0.7500000  0.0000000  0.7500000  )
        33           O   tau(  33) = (  0.2500000  0.5000000  0.2500000  )
        34           O   tau(  34) = (  0.5000000  0.7500000  0.2500000  )
        35           O   tau(  35) = (  0.5000000  0.2500000  0.2500000  )
        36           O   tau(  36) = (  0.0000000  0.7500000  0.7500000  )
        37           O   tau(  37) = (  0.0000000  0.2500000  0.7500000  )
        38           O   tau(  38) = (  0.5000000  0.7500000  0.7500000  )
        39           O   tau(  39) = (  0.5000000  0.2500000  0.7500000  )
        40           O   tau(  40) = (  0.0000000  0.7500000  0.2500000  )

     number of k points=     1  Methfessel-Paxton smearing, width (Ry)=  0.0100
                       cart. coord. in units 2pi/alat
        k(    1) = (   0.0000000   0.0000000   0.0000000), wk =   1.0000000

                       cryst. coord.
        k(    1) = (   0.0000000   0.0000000   0.0000000), wk =   1.0000000

     Dense  grid:    40099 G-vectors     FFT dimensions: (  45,  45,  45)

     Smooth grid:    14147 G-vectors     FFT dimensions: (  32,  32,  32)

     Dynamical RAM for                 wfc:       1.58 MB

     Dynamical RAM for     wfc (w. buffer):       4.75 MB

     Dynamical RAM for           str. fact:       0.61 MB

     Dynamical RAM for           local pot:       0.00 MB

     Dynamical RAM for          nlocal pot:       4.05 MB

     Dynamical RAM for                qrad:       2.88 MB

     Dynamical RAM for          rho,v,vnew:       2.03 MB

     Dynamical RAM for               rhoin:       0.68 MB

     Dynamical RAM for            rho*nmix:       4.90 MB

     Dynamical RAM for           G-vectors:       0.60 MB

     Dynamical RAM for          h,s,v(r/c):       0.63 MB

     Dynamical RAM for          <psi|beta>:       2.15 MB

     Dynamical RAM for      wfcinit/wfcrot:       5.36 MB

     Dynamical RAM for           addusdens:      32.28 MB

     Estimated static dynamical RAM per process >      22.37 MB

     Estimated max dynamical RAM per process >      54.65 MB

     Estimated total dynamical RAM >     218.59 MB

     Check: negative core charge=   -0.001412
     Generating pointlists ...
     new r_m :   0.1031 (alat units)  1.5380 (a.u.) for type    1
     new r_m :   0.1458 (alat units)  2.1750 (a.u.) for type    2
     new r_m :   0.1031 (alat units)  1.5380 (a.u.) for type    3
     new r_m :   0.1031 (alat units)  1.5380 (a.u.) for type    4

     Initial potential from superposition of free atoms

     starting charge  375.99958, renormalised to  392.00000

     negative rho (up, down):  1.795E-01 1.795E-01
     Starting wfcs are  272 randomized atomic wfcs

     total cpu time spent up to now is        2.9 secs

     Self-consistent Calculation

     iteration #  1     ecut=    10.00 Ry     beta= 0.40
     CG style diagonalization
     ethr =  1.00E-02,  avg # of iterations =  3.0

     negative rho (up, down):  1.799E-01 1.799E-01

     total cpu time spent up to now is       10.4 secs

     total energy              =   -3942.57224254 Ry
     estimated scf accuracy    <     330.69648873 Ry

     total magnetization       =    -0.02 Bohr mag/cell
     absolute magnetization    =     6.02 Bohr mag/cell

     iteration #  2     ecut=    10.00 Ry     beta= 0.40
     CG style diagonalization
     ethr =  1.00E-02,  avg # of iterations =  4.4

     negative rho (up, down):  1.592E-01 1.592E-01

     total cpu time spent up to now is       20.6 secs

     total energy              =   -3970.62249568 Ry
     estimated scf accuracy    <      90.28906925 Ry

     total magnetization       =     0.00 Bohr mag/cell
     absolute magnetization    =    15.43 Bohr mag/cell

     iteration #  3     ecut=    10.00 Ry     beta= 0.40
     CG style diagonalization
     ethr =  1.00E-02,  avg # of iterations =  3.3

     negative rho (up, down):  1.474E-01 1.476E-01

     total cpu time spent up to now is       28.2 secs

     total energy              =   -3968.36266265 Ry
     estimated scf accuracy    <      21.75331777 Ry

     total magnetization       =    -2.35 Bohr mag/cell
     absolute magnetization    =    14.12 Bohr mag/cell

     iteration #  4     ecut=    10.00 Ry     beta= 0.40
     CG style diagonalization
     ethr =  5.55E-03,  avg # of iterations =  3.3

     negative rho (up, down):  1.453E-01 1.453E-01

     total cpu time spent up to now is       36.1 secs

     total energy              =   -3971.14128659 Ry
     estimated scf accuracy    <       0.75608999 Ry

     total magnetization       =    -1.92 Bohr mag/cell
     absolute magnetization    =    11.43 Bohr mag/cell

     iteration #  5     ecut=    10.00 Ry     beta= 0.40
     CG style diagonalization
     c_bands:  4 eigenvalues not converged
     c_bands:  2 eigenvalues not converged
     ethr =  1.93E-04,  avg # of iterations =  4.4

     negative rho (up, down):  1.440E-01 1.432E-01

     total cpu time spent up to now is       46.2 secs

     total energy              =   -3971.53037595 Ry
     estimated scf accuracy    <       1.56105223 Ry

     total magnetization       =     0.45 Bohr mag/cell
     absolute magnetization    =     6.68 Bohr mag/cell

     iteration #  6     ecut=    10.00 Ry     beta= 0.40
     CG style diagonalization
     ethr =  1.93E-04,  avg # of iterations =  3.2

     negative rho (up, down):  1.417E-01 1.410E-01

     total cpu time spent up to now is       53.5 secs

     total energy              =   -3971.75126791 Ry
     estimated scf accuracy    <       0.40810267 Ry

     total magnetization       =    -0.79 Bohr mag/cell
     absolute magnetization    =     5.93 Bohr mag/cell

     iteration #  7     ecut=    10.00 Ry     beta= 0.40
     CG style diagonalization
     ethr =  1.04E-04,  avg # of iterations =  3.1

     negative rho (up, down):  1.429E-01 1.424E-01

     total cpu time spent up to now is       60.8 secs

     total energy              =   -3971.74189692 Ry
     estimated scf accuracy    <       0.38324361 Ry

     total magnetization       =    -0.19 Bohr mag/cell
     absolute magnetization    =     3.30 Bohr mag/cell

     iteration #  8     ecut=    10.00 Ry     beta= 0.40
     CG style diagonalization
     ethr =  9.78E-05,  avg # of iterations =  3.2

     negative rho (up, down):  1.410E-01 1.406E-01

     total cpu time spent up to now is       68.0 secs

     total energy              =   -3971.86826184 Ry
     estimated scf accuracy    <       0.22448660 Ry

     total magnetization       =    -0.12 Bohr mag/cell
     absolute magnetization    =     3.16 Bohr mag/cell

     iteration #  9     ecut=    10.00 Ry     beta= 0.40
     CG style diagonalization
     ethr =  5.73E-05,  avg # of iterations =  3.0

     negative rho (up, down):  1.406E-01 1.403E-01

     total cpu time spent up to now is       74.9 secs

     total energy              =   -3971.87459455 Ry
     estimated scf accuracy    <       0.05118394 Ry

     total magnetization       =    -0.14 Bohr mag/cell
     absolute magnetization    =     2.22 Bohr mag/cell

     iteration # 10     ecut=    10.00 Ry     beta= 0.40
     CG style diagonalization
     ethr =  1.31E-05,  avg # of iterations =  3.2

     negative rho (up, down):  1.409E-01 1.406E-01

     total cpu time spent up to now is       82.5 secs

     total energy              =   -3971.88681674 Ry
     estimated scf accuracy    <       0.00295359 Ry

     total magnetization       =    -0.13 Bohr mag/cell
     absolute magnetization    =     1.63 Bohr mag/cell

     iteration # 11     ecut=    10.00 Ry     beta= 0.40
     CG style diagonalization
     ethr =  7.53E-07,  avg # of iterations =  3.6

     negative rho (up, down):  1.411E-01 1.409E-01

     total cpu time spent up to now is       90.7 secs

     total energy              =   -3971.89030087 Ry
     estimated scf accuracy    <       0.00304873 Ry

     total magnetization       =    -0.10 Bohr mag/cell
     absolute magnetization    =     1.17 Bohr mag/cell

     iteration # 12     ecut=    10.00 Ry     beta= 0.40
     CG style diagonalization
     ethr =  7.53E-07,  avg # of iterations =  3.1

     negative rho (up, down):  1.412E-01 1.410E-01

     total cpu time spent up to now is       97.8 secs

     total energy              =   -3971.89220184 Ry
     estimated scf accuracy    <       0.00044123 Ry

     total magnetization       =    -0.05 Bohr mag/cell
     absolute magnetization    =     0.61 Bohr mag/cell

     iteration # 13     ecut=    10.00 Ry     beta= 0.40
     CG style diagonalization
     ethr =  1.13E-07,  avg # of iterations =  3.4

     negative rho (up, down):  1.412E-01 1.411E-01

     total cpu time spent up to now is      105.5 secs

     total energy              =   -3971.89296688 Ry
     estimated scf accuracy    <       0.00010406 Ry

     total magnetization       =    -0.03 Bohr mag/cell
     absolute magnetization    =     0.23 Bohr mag/cell

     iteration # 14     ecut=    10.00 Ry     beta= 0.40
     CG style diagonalization
     ethr =  2.65E-08,  avg # of iterations =  3.3

     negative rho (up, down):  1.411E-01 1.411E-01

     total cpu time spent up to now is      113.0 secs

     total energy              =   -3971.89310838 Ry
     estimated scf accuracy    <       0.00004210 Ry

     total magnetization       =    -0.02 Bohr mag/cell
     absolute magnetization    =     0.12 Bohr mag/cell

     iteration # 15     ecut=    10.00 Ry     beta= 0.40
     CG style diagonalization
     ethr =  1.07E-08,  avg # of iterations =  3.3

     negative rho (up, down):  1.411E-01 1.411E-01

     total cpu time spent up to now is      120.7 secs

     total energy              =   -3971.89315723 Ry
     estimated scf accuracy    <       0.00001557 Ry

     total magnetization       =    -0.02 Bohr mag/cell
     absolute magnetization    =     0.07 Bohr mag/cell

     iteration # 16     ecut=    10.00 Ry     beta= 0.40
     CG style diagonalization
     ethr =  3.97E-09,  avg # of iterations =  3.2

     negative rho (up, down):  1.411E-01 1.411E-01

     Magnetic moment per site:
     atom:    1    charge:   11.8968    magn:    0.0000    constr:    0.0000
     atom:    2    charge:   11.8968    magn:    0.0000    constr:    0.0000
     atom:    3    charge:   11.8957    magn:    0.0000    constr:    0.0000
     atom:    4    charge:   11.8967    magn:    0.0000    constr:    0.0000
     atom:    5    charge:   11.8957    magn:    0.0000    constr:    0.0000
     atom:    6    charge:   11.8978    magn:    0.0000    constr:    0.0000
     atom:    7    charge:   11.8967    magn:    0.0000    constr:    0.0000
     atom:    8    charge:   11.8957    magn:    0.0000    constr:    0.0000
     atom:    9    charge:   11.5744    magn:    0.0025    constr:    0.0000
     atom:   10    charge:   11.5744    magn:    0.0025    constr:    0.0000
     atom:   11    charge:   11.5739    magn:   -0.0018    constr:    0.0000
     atom:   12    charge:   11.5739    magn:   -0.0018    constr:    0.0000
     atom:   13    charge:   11.5744    magn:    0.0025    constr:    0.0000
     atom:   14    charge:   11.5744    magn:    0.0025    constr:    0.0000
     atom:   15    charge:   11.5739    magn:   -0.0018    constr:    0.0000
     atom:   16    charge:   11.5739    magn:   -0.0018    constr:    0.0000
     atom:   17    charge:    5.0931    magn:   -0.0006    constr:    0.0000
     atom:   18    charge:    5.0929    magn:   -0.0008    constr:    0.0000
     atom:   19    charge:    5.0929    magn:   -0.0008    constr:    0.0000
     atom:   20    charge:    5.0931    magn:   -0.0006    constr:    0.0000
     atom:   21    charge:    5.0930    magn:   -0.0006    constr:    0.0000
     atom:   22    charge:    5.0958    magn:   -0.0008    constr:    0.0000
     atom:   23    charge:    5.0958    magn:   -0.0006    constr:    0.0000
     atom:   24    charge:    5.0958    magn:   -0.0006    constr:    0.0000
     atom:   25    charge:    5.0958    magn:   -0.0008    constr:    0.0000
     atom:   26    charge:    5.0930    magn:   -0.0006    constr:    0.0000
     atom:   27    charge:    5.0958    magn:   -0.0008    constr:    0.0000
     atom:   28    charge:    5.0929    magn:   -0.0008    constr:    0.0000
     atom:   29    charge:    5.0958    magn:   -0.0008    constr:    0.0000
     atom:   30    charge:    5.0929    magn:   -0.0008    constr:    0.0000
     atom:   31    charge:    5.0958    magn:   -0.0008    constr:    0.0000
     atom:   32    charge:    5.0929    magn:   -0.0008    constr:    0.0000
     atom:   33    charge:    5.0958    magn:   -0.0008    constr:    0.0000
     atom:   34    charge:    5.0958    magn:   -0.0008    constr:    0.0000
     atom:   35    charge:    5.0958    magn:   -0.0008    constr:    0.0000
     atom:   36    charge:    5.0929    magn:   -0.0008    constr:    0.0000
     atom:   37    charge:    5.0929    magn:   -0.0008    constr:    0.0000
     atom:   38    charge:    5.0958    magn:   -0.0008    constr:    0.0000
     atom:   39    charge:    5.0958    magn:   -0.0008    constr:    0.0000
     atom:   40    charge:    5.0929    magn:   -0.0008    constr:    0.0000

     total cpu time spent up to now is      128.0 secs

     End of self-consistent calculation

 ------ SPIN UP ------------


          k = 0.0000 0.0000 0.0000 (  1791 PWs)   bands (ev):

  -123.5256-120.7100-120.7073-120.7046-119.5104-119.5077-119.5050-118.0599
   -66.9874 -66.9874 -66.9874 -61.3271 -61.3253 -61.3252 -61.3252 -61.3251
   -61.3232 -60.4667 -60.4666 -60.4663 -58.3973 -58.3954 -58.3954 -58.3953
   -58.3953 -58.3934 -55.5803 -55.5801 -55.5798 -55.1749 -55.1749 -55.1748
   -11.9010 -11.3087 -11.3087 -11.3086 -11.2012 -11.2007 -11.2006 -11.1956
   -11.1953 -10.9431 -10.9424 -10.9424 -10.7238 -10.7236 -10.6656 -10.6652
   -10.6651 -10.6243 -10.6243 -10.6242 -10.6220 -10.6220 -10.6219 -10.5891
   -10.5891 -10.5883 -10.5743 -10.5732 -10.5730 -10.5730 -10.5730 -10.5730
   -10.5549 -10.5548 -10.5545 -10.5528 -10.5521 -10.5521 -10.5433 -10.5432
   -10.5432 -10.5343 -10.5342 -10.5342 -10.4876 -10.4876 -10.4868 -10.1772
   -10.1769 -10.1767 -10.1593 -10.1586 -10.1586  -9.9616  -9.9615  -9.8677
    -9.8676  -9.8676  -9.8655  -9.8654  -9.8654  -9.7548  -9.7548  -9.7547
     2.1729   2.1731   2.1732   2.5190   2.5190   2.5190   2.9918   3.4481
     4.7315   4.7316   4.7316   6.7877   6.7877   6.7877   6.8065   7.1922
     7.1924   7.1926   7.2164   7.2175   7.2188   7.2701   7.2707   7.2712
     7.6071   7.6072   7.6072   7.9486   7.9492   7.9499   9.2142   9.2143
     9.2143   9.2146   9.2146   9.2148   9.7863   9.7864   9.7868   9.7869
     9.7869   9.7870   9.9385   9.9385   9.9388   9.9388   9.9388   9.9391
     9.9463   9.9466   9.9470   9.9470   9.9471   9.9479  10.0375  10.0377
    10.3978  10.3981  10.3991  10.4624  10.4624  10.5348  10.5351  10.5352
    10.9041  10.9041  10.9044  11.1794  11.1799  11.1800  11.7855  11.7857
    11.7857  12.1618  12.1649  12.1678  12.5821  12.5827  12.5833  12.9378
    12.9383  12.9388  12.9389  12.9389  12.9399  12.9522  12.9526  12.9528
    12.9531  12.9532  12.9532  13.4065  13.4076  13.4090  13.7317  13.7317
    13.7322  13.7325  13.7332  13.7333  13.9578  13.9580  13.9587  14.4415
    14.4433  14.4454  15.5685  15.5690  15.5691  15.9396  15.9405  15.9413
    15.9474  15.9478  15.9479  16.1145  16.2798  16.2814  16.2814  16.2814
    16.2816  16.2830  16.6623  16.6626  16.6630  17.0041  17.0041  17.0041
    17.0042  17.0045  17.0045  17.5898  17.5898  17.5900  17.5902  17.5942
    18.4459  18.4464  18.4466

     occupation numbers 
     1.0000   1.0000   1.0000   1.0000   1.0000   1.0000   1.0000   1.0000
     1.0000   1.0000   1.0000   1.0000   1.0000   1.0000   1.0000   1.0000
     1.0000   1.0000   1.0000   1.0000   1.0000   1.0000   1.0000   1.0000
     1.0000   1.0000   1.0000   1.0000   1.0000   1.0000   1.0000   1.0000
     1.0000   1.0000   1.0000   1.0000   1.0000   1.0000   1.0000   1.0000
     1.0000   1.0000   1.0000   1.0000   1.0000   1.0000   1.0000   1.0000
     1.0000   1.0000   1.0000   1.0000   1.0000   1.0000   1.0000   1.0000
     1.0000   1.0000   1.0000   1.0000   1.0000   1.0000   1.0000   1.0000
     1.0000   1.0000   1.0000   1.0000   1.0000   1.0000   1.0000   1.0000
     1.0000   1.0000   1.0000   1.0000   1.0000   1.0000   1.0000   1.0000
     1.0000   1.0000   1.0000   1.0000   1.0000   1.0000   1.0000   1.0000
     1.0000   1.0000   1.0000   1.0000   1.0000   1.0000   1.0000   1.0000
     1.0000   1.0000   1.0000   1.0000   1.0000   1.0000   1.0000   1.0000
     1.0000   1.0000   1.0000   1.0000   1.0000   1.0000   1.0000   1.0000
     1.0000   1.0000   1.0000   1.0000   1.0000   1.0000   1.0000   1.0000
     1.0000   1.0000   1.0000   1.0000   1.0000   1.0000   1.0000   1.0000
     1.0000   1.0000   1.0000   1.0000   1.0000   1.0000   1.0000   1.0000
     1.0000   1.0000   1.0000   1.0000   1.0000   1.0000   1.0000   1.0000
     1.0000   1.0000   1.0000   1.0000   1.0000   1.0000   1.0000   1.0000
     1.0000   1.0000   1.0000   1.0000   1.0000   1.0000   1.0000   1.0000
     1.0000   1.0000   1.0000   1.0000   1.0000   1.0000   1.0000   1.0000
     1.0000   1.0000   1.0000   1.0000   1.0000   1.0000   1.0000   1.0000
     1.0000   1.0000   1.0000   1.0000   1.0000   1.0000   1.0000   1.0000
     1.0000   1.0000   1.0000   1.0000   1.0000   1.0000   0.9985   0.9984
     0.9976   0.9971   0.9959   0.9958   0.0034   0.0030   0.0019  -0.0000
    -0.0000  -0.0000  -0.0000  -0.0000  -0.0000  -0.0000  -0.0000  -0.0000
    -0.0000  -0.0000  -0.0000  -0.0000  -0.0000  -0.0000  -0.0000  -0.0000
    -0.0000  -0.0000  -0.0000  -0.0000  -0.0000  -0.0000  -0.0000  -0.0000
    -0.0000  -0.0000  -0.0000  -0.0000  -0.0000  -0.0000  -0.0000  -0.0000
    -0.0000  -0.0000  -0.0000

 ------ SPIN DOWN ----------


          k = 0.0000 0.0000 0.0000 (  1791 PWs)   bands (ev):

  -123.5249-120.7084-120.7065-120.7046-119.5088-119.5069-119.5050-118.0591
   -66.9866 -66.9864 -66.9864 -61.3255 -61.3244 -61.3242 -61.3241 -61.3240
   -61.3231 -60.4657 -60.4657 -60.4653 -58.3957 -58.3945 -58.3944 -58.3943
   -58.3942 -58.3933 -55.5792 -55.5792 -55.5787 -55.1739 -55.1738 -55.1738
   -11.9027 -11.3087 -11.3086 -11.3086 -11.2026 -11.2025 -11.2025 -11.1965
   -11.1965 -10.9444 -10.9444 -10.9443 -10.7244 -10.7244 -10.6664 -10.6664
   -10.6663 -10.6243 -10.6243 -10.6242 -10.6220 -10.6220 -10.6219 -10.5891
   -10.5891 -10.5883 -10.5753 -10.5751 -10.5751 -10.5751 -10.5751 -10.5751
   -10.5548 -10.5548 -10.5544 -10.5543 -10.5541 -10.5541 -10.5433 -10.5433
   -10.5431 -10.5344 -10.5343 -10.5342 -10.4876 -10.4875 -10.4868 -10.1777
   -10.1777 -10.1775 -10.1607 -10.1606 -10.1606  -9.9616  -9.9615  -9.8677
    -9.8677  -9.8675  -9.8654  -9.8654  -9.8653  -9.7548  -9.7548  -9.7548
     2.1731   2.1732   2.1734   2.5193   2.5194   2.5194   2.9923   3.4486
     4.7327   4.7328   4.7329   6.7869   6.7869   6.7872   6.8065   7.1922
     7.1923   7.1927   7.2173   7.2183   7.2191   7.2704   7.2706   7.2708
     7.6061   7.6061   7.6061   7.9488   7.9494   7.9502   9.2131   9.2132
     9.2134   9.2135   9.2135   9.2139   9.7855   9.7856   9.7856   9.7857
     9.7857   9.7858   9.9374   9.9376   9.9376   9.9377   9.9377   9.9380
     9.9455   9.9464   9.9466   9.9467   9.9469   9.9478  10.0389  10.0392
    10.3991  10.3992  10.4005  10.4626  10.4627  10.5344  10.5345  10.5345
    10.9019  10.9019  10.9020  11.1776  11.1779  11.1780  11.7844  11.7845
    11.7845  12.1637  12.1662  12.1690  12.5799  12.5803  12.5806  12.9368
    12.9380  12.9383  12.9383  12.9386  12.9397  12.9509  12.9510  12.9512
    12.9512  12.9514  12.9515  13.4076  13.4089  13.4098  13.7294  13.7294
    13.7295  13.7309  13.7312  13.7314  13.9585  13.9591  13.9595  14.4433
    14.4455  14.4465  15.5691  15.5694  15.5699  15.9399  15.9405  15.9415
    15.9486  15.9486  15.9491  16.1153  16.2802  16.2822  16.2824  16.2825
    16.2828  16.2845  16.6621  16.6623  16.6629  17.0034  17.0034  17.0035
    17.0036  17.0039  17.0040  17.5893  17.5895  17.5896  17.5899  17.5902
    17.5920  18.4461  18.4461

     occupation numbers 
     1.0000   1.0000   1.0000   1.0000   1.0000   1.0000   1.0000   1.0000
     1.0000   1.0000   1.0000   1.0000   1.0000   1.0000   1.0000   1.0000
     1.0000   1.0000   1.0000   1.0000   1.0000   1.0000   1.0000   1.0000
     1.0000   1.0000   1.0000   1.0000   1.0000   1.0000   1.0000   1.0000
     1.0000   1.0000   1.0000   1.0000   1.0000   1.0000   1.0000   1.0000
     1.0000   1.0000   1.0000   1.0000   1.0000   1.0000   1.0000   1.0000
     1.0000   1.0000   1.0000   1.0000   1.0000   1.0000   1.0000   1.0000
     1.0000   1.0000   1.0000   1.0000   1.0000   1.0000   1.0000   1.0000
     1.0000   1.0000   1.0000   1.0000   1.0000   1.0000   1.0000   1.0000
     1.0000   1.0000   1.0000   1.0000   1.0000   1.0000   1.0000   1.0000
     1.0000   1.0000   1.0000   1.0000   1.0000   1.0000   1.0000   1.0000
     1.0000   1.0000   1.0000   1.0000   1.0000   1.0000   1.0000   1.0000
     1.0000   1.0000   1.0000   1.0000   1.0000   1.0000   1.0000   1.0000
     1.0000   1.0000   1.0000   1.0000   1.0000   1.0000   1.0000   1.0000
     1.0000   1.0000   1.0000   1.0000   1.0000   1.0000   1.0000   1.0000
     1.0000   1.0000   1.0000   1.0000   1.0000   1.0000   1.0000   1.0000
     1.0000   1.0000   1.0000   1.0000   1.0000   1.0000   1.0000   1.0000
     1.0000   1.0000   1.0000   1.0000   1.0000   1.0000   1.0000   1.0000
     1.0000   1.0000   1.0000   1.0000   1.0000   1.0000   1.0000   1.0000
     1.0000   1.0000   1.0000   1.0000   1.0000   1.0000   1.0000   1.0000
     1.0000   1.0000   1.0000   1.0000   1.0000   1.0000   1.0000   1.0000
     1.0000   1.0000   1.0000   1.0000   1.0000   1.0000   1.0000   1.0000
     1.0000   1.0000   1.0000   1.0000   1.0000   1.0000   1.0000   1.0000
     1.0000   1.0000   1.0000   1.0000   1.0000   1.0000   1.0021   1.0021
     1.0021   0.9997   0.9993   0.9989   0.0022   0.0013   0.0006  -0.0000
    -0.0000  -0.0000  -0.0000  -0.0000  -0.0000  -0.0000  -0.0000  -0.0000
    -0.0000  -0.0000  -0.0000  -0.0000  -0.0000  -0.0000  -0.0000  -0.0000
    -0.0000  -0.0000  -0.0000  -0.0000  -0.0000  -0.0000  -0.0000  -0.0000
    -0.0000  -0.0000  -0.0000  -0.0000  -0.0000  -0.0000  -0.0000  -0.0000
    -0.0000  -0.0000  -0.0000

     the Fermi energy is    13.8453 ev

!    total energy              =   -3971.89318180 Ry
     estimated scf accuracy    <       0.00000403 Ry
     smearing contrib. (-TS)   =       0.00501643 Ry
     internal energy E=F+TS    =   -3971.89819823 Ry

     The total energy is F=E-TS. E is the sum of the following terms:
     one-electron contribution =   -1076.01229489 Ry
     hartree contribution      =     694.14490879 Ry
     xc contribution           =    -852.42703561 Ry
     ewald contribution        =   -2737.60377653 Ry

     total magnetization       =    -0.02 Bohr mag/cell
     absolute magnetization    =     0.05 Bohr mag/cell

     convergence has been achieved in  16 iterations

     Writing output data file /home/aldair1809/Documentos/QE/4BFO/temp/bifeo3.save/

     init_run     :      2.39s CPU      2.48s WALL (       1 calls)
     electrons    :    122.11s CPU    125.04s WALL (       1 calls)

     Called by init_run:
     wfcinit      :      1.80s CPU      1.82s WALL (       1 calls)
     wfcinit:atom :      0.00s CPU      0.00s WALL (       2 calls)
     wfcinit:wfcr :      1.78s CPU      1.80s WALL (       2 calls)
     potinit      :      0.05s CPU      0.06s WALL (       1 calls)
     hinit0       :      0.18s CPU      0.18s WALL (       1 calls)

     Called by electrons:
     c_bands      :    104.62s CPU    107.33s WALL (      16 calls)
     sum_band     :     11.62s CPU     11.79s WALL (      16 calls)
     v_of_rho     :      0.62s CPU      0.63s WALL (      17 calls)
     v_h          :      0.02s CPU      0.02s WALL (      17 calls)
     v_xc         :      0.60s CPU      0.61s WALL (      17 calls)
     newd         :      5.44s CPU      5.54s WALL (      17 calls)
     mix_rho      :      0.08s CPU      0.09s WALL (      16 calls)

     Called by c_bands:
     init_us_2    :      0.15s CPU      0.15s WALL (      66 calls)
     ccgdiagg     :     81.47s CPU     83.88s WALL (      32 calls)
     wfcrot       :     24.77s CPU     25.09s WALL (      32 calls)

     Called by sum_band:
     sum_band:wei :      0.01s CPU      0.01s WALL (      16 calls)
     sum_band:loo :      6.00s CPU      6.15s WALL (      16 calls)
     sum_band:buf :      0.03s CPU      0.03s WALL (      32 calls)
     sum_band:ini :      0.07s CPU      0.07s WALL (      32 calls)
     sum_band:cal :      5.20s CPU      5.24s WALL (      32 calls)
     sum_band:bec :      0.18s CPU      0.18s WALL (      32 calls)
     addusdens    :      5.44s CPU      5.45s WALL (      16 calls)
     addusd:skk   :      0.04s CPU      0.04s WALL (      64 calls)
     addusd:dgemm :      3.67s CPU      3.68s WALL (     128 calls)
     addusd:qvan2 :      1.67s CPU      1.67s WALL (     128 calls)

     Called by *cgdiagg:
     h_psi        :     44.45s CPU     46.24s WALL (   18366 calls)
     s_psi        :     32.62s CPU     33.09s WALL (   36700 calls)

     Called by h_psi:
     h_psi:calbec :     19.64s CPU     20.76s WALL (   18366 calls)
     vloc_psi     :      5.37s CPU      5.79s WALL (   18366 calls)
     add_vuspsi   :     19.16s CPU     19.45s WALL (   18366 calls)
     hs_1psi      :     46.08s CPU     47.78s WALL (   18334 calls)
     s_1psi       :     27.08s CPU     27.68s WALL (   18334 calls)

     General routines
     calbec       :     38.04s CPU     39.65s WALL (   36732 calls)
     fft          :      0.25s CPU      0.27s WALL (     419 calls)
     ffts         :      0.01s CPU      0.01s WALL (      66 calls)
     fftw         :      4.95s CPU      5.39s WALL (   59376 calls)
     interpolate  :      0.03s CPU      0.03s WALL (      34 calls)

     Parallel routines
     fft_scatt_xy :      0.74s CPU      0.80s WALL (   59861 calls)
     fft_scatt_yz :      1.92s CPU      2.11s WALL (   59861 calls)

     PWSCF        :   2m 4.95s CPU   2m 8.04s WALL


   This run was terminated on:  13: 6: 0  24Oct2024            

=------------------------------------------------------------------------------=
   JOB DONE.
=------------------------------------------------------------------------------=
