
     Program PWSCF v.6.7MaX starts on 24Oct2024 at 13:12:16 

     This program is part of the open-source Quantum ESPRESSO suite
     for quantum simulation of materials; please cite
         "P. Giannozzi et al., J. Phys.:Condens. Matter 21 395502 (2009);
         "P. Giannozzi et al., J. Phys.:Condens. Matter 29 465901 (2017);
          URL http://www.quantum-espresso.org", 
     in publications or presentations arising from this work. More details at
     http://www.quantum-espresso.org/quote

     Parallel version (MPI), running on     4 processors

     MPI processes distributed on     1 nodes
     R & G space division:  proc/nbgrp/npool/nimage =       4
     Waiting for input...
     Reading input from standard input

     Current dimensions of program PWSCF are:
     Max number of different atomic species (ntypx) = 10
     Max number of k-points (npk) =  40000
     Max angular momentum in pseudopotentials (lmaxx) =  3
     Message from routine iosys:
     wrong startingpot: use default (1)

     Subspace diagonalization in iterative solution of the eigenvalue problem:
     one sub-group per band group will be used
     scalapack distributed-memory algorithm (size of sub-group:  2*  2 procs)

     Found symmetry operation: I + ( -0.5000 -0.5000  0.0000)
     This is a supercell, fractional translations are disabled

     Parallelization info
     --------------------
     sticks:   dense  smooth     PW     G-vecs:    dense   smooth      PW
     Min         886     441    109                39654    14003    1743
     Max         887     442    110                39656    14006    1746
     Sum        3545    1765    437               158619    56019    6979



     bravais-lattice index     =            1
     lattice parameter (alat)  =      14.9137  a.u.
     unit-cell volume          =    3317.0944 (a.u.)^3
     number of atoms/cell      =           40
     number of atomic types    =            4
     number of electrons       =       392.00
     number of Kohn-Sham states=          235
     kinetic-energy cutoff     =      25.0000  Ry
     charge density cutoff     =     200.0000  Ry
     scf convergence threshold =      1.0E-05
     mixing beta               =       0.4000
     number of iterations used =            8  plain     mixing
     Exchange-correlation=  SLA  PW   PBX  PBC
                           (   1   4   3   4   0   0   0)

     celldm(1)=  14.913719  celldm(2)=   0.000000  celldm(3)=   0.000000
     celldm(4)=   0.000000  celldm(5)=   0.000000  celldm(6)=   0.000000

     crystal axes: (cart. coord. in units of alat)
               a(1) = (   1.000000   0.000000   0.000000 )  
               a(2) = (   0.000000   1.000000   0.000000 )  
               a(3) = (   0.000000   0.000000   1.000000 )  

     reciprocal axes: (cart. coord. in units 2 pi/alat)
               b(1) = (  1.000000  0.000000  0.000000 )  
               b(2) = (  0.000000  1.000000  0.000000 )  
               b(3) = (  0.000000  0.000000  1.000000 )  


     PseudoPot. # 1 for O  read from file:
     /home/aldair1809/Programas/QE/q-e-qe-7.3/pseudo/o_pbe_v1.2.uspp.F.UPF
     MD5 check sum: 734c27235a0248c51dbae37a1fbe46ec
     Pseudo is Ultrasoft + core correction, Zval =  6.0
     Generated by new atomic code, or converted to UPF format
     Using radial grid of  737 points,  5 beta functions with: 
                l(1) =   0
                l(2) =   0
                l(3) =   1
                l(4) =   1
                l(5) =   2
     Q(r) pseudized with  8 coefficients,  rinner =    0.900   0.900   0.900
                                                       0.900   0.900

     PseudoPot. # 2 for Bi read from file:
     /home/aldair1809/Programas/QE/q-e-qe-7.3/pseudo/bi_pbe_v1.uspp.F.UPF
     MD5 check sum: cceb9f28ec65b6d7ff33140f5b0b1758
     Pseudo is Ultrasoft + core correction, Zval = 15.0
     Generated by new atomic code, or converted to UPF format
     Using radial grid of  899 points,  6 beta functions with: 
                l(1) =   0
                l(2) =   0
                l(3) =   1
                l(4) =   1
                l(5) =   2
                l(6) =   2
     Q(r) pseudized with  6 coefficients,  rinner =    1.000   1.000   1.000
                                                       1.000   1.000

     PseudoPot. # 3 for Fe read from file:
     /home/aldair1809/Programas/QE/q-e-qe-7.3/pseudo/fe_pbe_v1.5.uspp.F.UPF
     MD5 check sum: a130daea23fe5165f5d574ae7f82ed95
     Pseudo is Ultrasoft + core correction, Zval = 16.0
     Generated by new atomic code, or converted to UPF format
     Using radial grid of  861 points,  6 beta functions with: 
                l(1) =   0
                l(2) =   0
                l(3) =   1
                l(4) =   1
                l(5) =   2
                l(6) =   2
     Q(r) pseudized with  8 coefficients,  rinner =    1.000   1.000   1.000
                                                       1.000   1.000

     PseudoPot. # 4 for Fe read from file:
     /home/aldair1809/Programas/QE/q-e-qe-7.3/pseudo/fe_pbe_v1.5.uspp.F.UPF
     MD5 check sum: a130daea23fe5165f5d574ae7f82ed95
     Pseudo is Ultrasoft + core correction, Zval = 16.0
     Generated by new atomic code, or converted to UPF format
     Using radial grid of  861 points,  6 beta functions with: 
                l(1) =   0
                l(2) =   0
                l(3) =   1
                l(4) =   1
                l(5) =   2
                l(6) =   2
     Q(r) pseudized with  8 coefficients,  rinner =    1.000   1.000   1.000
                                                       1.000   1.000

     atomic species   valence    mass     pseudopotential
        O              6.00    15.99940     O ( 1.00)
        Bi            15.00   208.98040     Bi( 1.00)
        Fe1           16.00    55.84500     Fe( 1.00)
        Fe2           16.00    55.84500     Fe( 1.00)

     Starting magnetic structure 
     atomic species   magnetization
        O            0.000
        Bi           0.000
        Fe1         -0.800
        Fe2          0.800

      8 Sym. Ops., with inversion, found


                                    s                        frac. trans.

      isym =  1     identity                                     

 cryst.   s( 1) = (     1          0          0      )
                  (     0          1          0      )
                  (     0          0          1      )

 cart.    s( 1) = (  1.0000000  0.0000000  0.0000000 )
                  (  0.0000000  1.0000000  0.0000000 )
                  (  0.0000000  0.0000000  1.0000000 )


      isym =  2     180 deg rotation - cart. axis [0,0,1]        

 cryst.   s( 2) = (    -1          0          0      )
                  (     0         -1          0      )
                  (     0          0          1      )

 cart.    s( 2) = ( -1.0000000  0.0000000  0.0000000 )
                  (  0.0000000 -1.0000000  0.0000000 )
                  (  0.0000000  0.0000000  1.0000000 )


      isym =  3     180 deg rotation - cart. axis [1,1,0]        

 cryst.   s( 3) = (     0          1          0      )
                  (     1          0          0      )
                  (     0          0         -1      )

 cart.    s( 3) = (  0.0000000  1.0000000  0.0000000 )
                  (  1.0000000  0.0000000  0.0000000 )
                  (  0.0000000  0.0000000 -1.0000000 )


      isym =  4     180 deg rotation - cart. axis [1,-1,0]       

 cryst.   s( 4) = (     0         -1          0      )
                  (    -1          0          0      )
                  (     0          0         -1      )

 cart.    s( 4) = (  0.0000000 -1.0000000  0.0000000 )
                  ( -1.0000000  0.0000000  0.0000000 )
                  (  0.0000000  0.0000000 -1.0000000 )


      isym =  5     inversion                                    

 cryst.   s( 5) = (    -1          0          0      )
                  (     0         -1          0      )
                  (     0          0         -1      )

 cart.    s( 5) = ( -1.0000000  0.0000000  0.0000000 )
                  (  0.0000000 -1.0000000  0.0000000 )
                  (  0.0000000  0.0000000 -1.0000000 )


      isym =  6     inv. 180 deg rotation - cart. axis [0,0,1]   

 cryst.   s( 6) = (     1          0          0      )
                  (     0          1          0      )
                  (     0          0         -1      )

 cart.    s( 6) = (  1.0000000  0.0000000  0.0000000 )
                  (  0.0000000  1.0000000  0.0000000 )
                  (  0.0000000  0.0000000 -1.0000000 )


      isym =  7     inv. 180 deg rotation - cart. axis [1,1,0]   

 cryst.   s( 7) = (     0         -1          0      )
                  (    -1          0          0      )
                  (     0          0          1      )

 cart.    s( 7) = (  0.0000000 -1.0000000  0.0000000 )
                  ( -1.0000000  0.0000000  0.0000000 )
                  (  0.0000000  0.0000000  1.0000000 )


      isym =  8     inv. 180 deg rotation - cart. axis [1,-1,0]  

 cryst.   s( 8) = (     0          1          0      )
                  (     1          0          0      )
                  (     0          0          1      )

 cart.    s( 8) = (  0.0000000  1.0000000  0.0000000 )
                  (  1.0000000  0.0000000  0.0000000 )
                  (  0.0000000  0.0000000  1.0000000 )


     point group D_2h (mmm) 
     there are  8 classes
     the character table:

       E     C2    C2'   C2''  i     s_v   s_v'  s_v''
A_g    1.00  1.00  1.00  1.00  1.00  1.00  1.00  1.00
B_1g   1.00  1.00 -1.00 -1.00  1.00  1.00 -1.00 -1.00
B_2g   1.00 -1.00  1.00 -1.00  1.00 -1.00  1.00 -1.00
B_3g   1.00 -1.00 -1.00  1.00  1.00 -1.00 -1.00  1.00
A_u    1.00  1.00  1.00  1.00 -1.00 -1.00 -1.00 -1.00
B_1u   1.00  1.00 -1.00 -1.00 -1.00 -1.00  1.00  1.00
B_2u   1.00 -1.00  1.00 -1.00 -1.00  1.00 -1.00  1.00
B_3u   1.00 -1.00 -1.00  1.00 -1.00  1.00  1.00 -1.00

     the symmetry operations in each class and the name of the first element:

     E        1
          identity                                               
     C2       2
          180 deg rotation - cart. axis [0,0,1]                  
     C2'      4
          180 deg rotation - cart. axis [1,-1,0]                 
     C2''     3
          180 deg rotation - cart. axis [1,1,0]                  
     i        5
          inversion                                              
     s_v      6
          inv. 180 deg rotation - cart. axis [0,0,1]             
     s_v'     8
          inv. 180 deg rotation - cart. axis [1,-1,0]            
     s_v''    7
          inv. 180 deg rotation - cart. axis [1,1,0]             

   Cartesian axes

     site n.     atom                  positions (alat units)
         1           Bi  tau(   1) = (   0.0000000   0.0000000   0.0000000  )
         2           Bi  tau(   2) = (   0.5000000   0.5000000   0.0000000  )
         3           Bi  tau(   3) = (   0.5000000   0.0000000   0.0000000  )
         4           Bi  tau(   4) = (   0.0000000   0.5000000   0.5000000  )
         5           Bi  tau(   5) = (   0.0000000   0.0000000   0.5000000  )
         6           Bi  tau(   6) = (   0.5000000   0.5000000   0.5000000  )
         7           Bi  tau(   7) = (   0.5000000   0.0000000   0.5000000  )
         8           Bi  tau(   8) = (   0.0000000   0.5000000   0.0000000  )
         9           Fe2 tau(   9) = (   0.2500000   0.2500000   0.2500000  )
        10           Fe2 tau(  10) = (   0.7500000   0.7500000   0.2500000  )
        11           Fe1 tau(  11) = (   0.7500000   0.2500000   0.2500000  )
        12           Fe1 tau(  12) = (   0.2500000   0.7500000   0.7500000  )
        13           Fe2 tau(  13) = (   0.2500000   0.2500000   0.7500000  )
        14           Fe2 tau(  14) = (   0.7500000   0.7500000   0.7500000  )
        15           Fe1 tau(  15) = (   0.7500000   0.2500000   0.7500000  )
        16           Fe1 tau(  16) = (   0.2500000   0.7500000   0.2500000  )
        17           O   tau(  17) = (   0.2500000   0.2500000   0.0000000  )
        18           O   tau(  18) = (   0.2500000   0.0000000   0.2500000  )
        19           O   tau(  19) = (   0.0000000   0.2500000   0.2500000  )
        20           O   tau(  20) = (   0.7500000   0.7500000   0.0000000  )
        21           O   tau(  21) = (   0.7500000   0.2500000   0.0000000  )
        22           O   tau(  22) = (   0.2500000   0.7500000   0.5000000  )
        23           O   tau(  23) = (   0.2500000   0.2500000   0.5000000  )
        24           O   tau(  24) = (   0.7500000   0.7500000   0.5000000  )
        25           O   tau(  25) = (   0.7500000   0.2500000   0.5000000  )
        26           O   tau(  26) = (   0.2500000   0.7500000   0.0000000  )
        27           O   tau(  27) = (   0.7500000   0.5000000   0.2500000  )
        28           O   tau(  28) = (   0.7500000   0.0000000   0.2500000  )
        29           O   tau(  29) = (   0.2500000   0.5000000   0.7500000  )
        30           O   tau(  30) = (   0.2500000   0.0000000   0.7500000  )
        31           O   tau(  31) = (   0.7500000   0.5000000   0.7500000  )
        32           O   tau(  32) = (   0.7500000   0.0000000   0.7500000  )
        33           O   tau(  33) = (   0.2500000   0.5000000   0.2500000  )
        34           O   tau(  34) = (   0.5000000   0.7500000   0.2500000  )
        35           O   tau(  35) = (   0.5000000   0.2500000   0.2500000  )
        36           O   tau(  36) = (   0.0000000   0.7500000   0.7500000  )
        37           O   tau(  37) = (   0.0000000   0.2500000   0.7500000  )
        38           O   tau(  38) = (   0.5000000   0.7500000   0.7500000  )
        39           O   tau(  39) = (   0.5000000   0.2500000   0.7500000  )
        40           O   tau(  40) = (   0.0000000   0.7500000   0.2500000  )

   Crystallographic axes

     site n.     atom                  positions (cryst. coord.)
         1           Bi  tau(   1) = (  0.0000000  0.0000000  0.0000000  )
         2           Bi  tau(   2) = (  0.5000000  0.5000000  0.0000000  )
         3           Bi  tau(   3) = (  0.5000000  0.0000000  0.0000000  )
         4           Bi  tau(   4) = (  0.0000000  0.5000000  0.5000000  )
         5           Bi  tau(   5) = (  0.0000000  0.0000000  0.5000000  )
         6           Bi  tau(   6) = (  0.5000000  0.5000000  0.5000000  )
         7           Bi  tau(   7) = (  0.5000000  0.0000000  0.5000000  )
         8           Bi  tau(   8) = (  0.0000000  0.5000000  0.0000000  )
         9           Fe2 tau(   9) = (  0.2500000  0.2500000  0.2500000  )
        10           Fe2 tau(  10) = (  0.7500000  0.7500000  0.2500000  )
        11           Fe1 tau(  11) = (  0.7500000  0.2500000  0.2500000  )
        12           Fe1 tau(  12) = (  0.2500000  0.7500000  0.7500000  )
        13           Fe2 tau(  13) = (  0.2500000  0.2500000  0.7500000  )
        14           Fe2 tau(  14) = (  0.7500000  0.7500000  0.7500000  )
        15           Fe1 tau(  15) = (  0.7500000  0.2500000  0.7500000  )
        16           Fe1 tau(  16) = (  0.2500000  0.7500000  0.2500000  )
        17           O   tau(  17) = (  0.2500000  0.2500000  0.0000000  )
        18           O   tau(  18) = (  0.2500000  0.0000000  0.2500000  )
        19           O   tau(  19) = (  0.0000000  0.2500000  0.2500000  )
        20           O   tau(  20) = (  0.7500000  0.7500000  0.0000000  )
        21           O   tau(  21) = (  0.7500000  0.2500000  0.0000000  )
        22           O   tau(  22) = (  0.2500000  0.7500000  0.5000000  )
        23           O   tau(  23) = (  0.2500000  0.2500000  0.5000000  )
        24           O   tau(  24) = (  0.7500000  0.7500000  0.5000000  )
        25           O   tau(  25) = (  0.7500000  0.2500000  0.5000000  )
        26           O   tau(  26) = (  0.2500000  0.7500000  0.0000000  )
        27           O   tau(  27) = (  0.7500000  0.5000000  0.2500000  )
        28           O   tau(  28) = (  0.7500000  0.0000000  0.2500000  )
        29           O   tau(  29) = (  0.2500000  0.5000000  0.7500000  )
        30           O   tau(  30) = (  0.2500000  0.0000000  0.7500000  )
        31           O   tau(  31) = (  0.7500000  0.5000000  0.7500000  )
        32           O   tau(  32) = (  0.7500000  0.0000000  0.7500000  )
        33           O   tau(  33) = (  0.2500000  0.5000000  0.2500000  )
        34           O   tau(  34) = (  0.5000000  0.7500000  0.2500000  )
        35           O   tau(  35) = (  0.5000000  0.2500000  0.2500000  )
        36           O   tau(  36) = (  0.0000000  0.7500000  0.7500000  )
        37           O   tau(  37) = (  0.0000000  0.2500000  0.7500000  )
        38           O   tau(  38) = (  0.5000000  0.7500000  0.7500000  )
        39           O   tau(  39) = (  0.5000000  0.2500000  0.7500000  )
        40           O   tau(  40) = (  0.0000000  0.7500000  0.2500000  )

     number of k points=     1  Methfessel-Paxton smearing, width (Ry)=  0.0100
                       cart. coord. in units 2pi/alat
        k(    1) = (   0.0000000   0.0000000   0.0000000), wk =   1.0000000

                       cryst. coord.
        k(    1) = (   0.0000000   0.0000000   0.0000000), wk =   1.0000000

     Dense  grid:   158619 G-vectors     FFT dimensions: (  72,  72,  72)

     Smooth grid:    56019 G-vectors     FFT dimensions: (  48,  48,  48)

     Dynamical RAM for                 wfc:       6.28 MB

     Dynamical RAM for     wfc (w. buffer):      18.83 MB

     Dynamical RAM for           str. fact:       2.42 MB

     Dynamical RAM for           local pot:       0.00 MB

     Dynamical RAM for          nlocal pot:      16.02 MB

     Dynamical RAM for                qrad:       4.54 MB

     Dynamical RAM for          rho,v,vnew:       7.90 MB

     Dynamical RAM for               rhoin:       2.63 MB

     Dynamical RAM for            rho*nmix:      19.36 MB

     Dynamical RAM for           G-vectors:       2.38 MB

     Dynamical RAM for          h,s,v(r/c):       0.63 MB

     Dynamical RAM for          <psi|beta>:       2.15 MB

     Dynamical RAM for      wfcinit/wfcrot:      16.22 MB

     Dynamical RAM for           addusdens:     127.67 MB

     Estimated static dynamical RAM per process >      81.38 MB

     Estimated max dynamical RAM per process >     209.05 MB

     Estimated total dynamical RAM >     836.21 MB

     Check: negative core charge=   -0.000024
     Generating pointlists ...
     new r_m :   0.1031 (alat units)  1.5380 (a.u.) for type    1
     new r_m :   0.1458 (alat units)  2.1750 (a.u.) for type    2
     new r_m :   0.1031 (alat units)  1.5380 (a.u.) for type    3
     new r_m :   0.1031 (alat units)  1.5380 (a.u.) for type    4

     Initial potential from superposition of free atoms

     starting charge  375.99958, renormalised to  392.00000

     negative rho (up, down):  1.815E-01 1.815E-01
     Starting wfcs are  272 randomized atomic wfcs

     total cpu time spent up to now is       11.9 secs

     Self-consistent Calculation

     iteration #  1     ecut=    25.00 Ry     beta= 0.40
     CG style diagonalization
     ethr =  1.00E-02,  avg # of iterations =  2.4

     negative rho (up, down):  1.673E-01 1.673E-01

     total cpu time spent up to now is       43.6 secs

     total energy              =   -4247.98477851 Ry
     estimated scf accuracy    <      31.86704761 Ry

     total magnetization       =     0.00 Bohr mag/cell
     absolute magnetization    =    39.82 Bohr mag/cell

     iteration #  2     ecut=    25.00 Ry     beta= 0.40
     CG style diagonalization
     ethr =  8.13E-03,  avg # of iterations =  3.4

     negative rho (up, down):  1.659E-01 1.659E-01

     total cpu time spent up to now is       82.7 secs

     total energy              =   -4254.17584193 Ry
     estimated scf accuracy    <       8.37258921 Ry

     total magnetization       =    -0.00 Bohr mag/cell
     absolute magnetization    =    36.64 Bohr mag/cell

     iteration #  3     ecut=    25.00 Ry     beta= 0.40
     CG style diagonalization
     ethr =  2.14E-03,  avg # of iterations =  3.2

     negative rho (up, down):  1.624E-01 1.624E-01

     total cpu time spent up to now is      127.1 secs

     total energy              =   -4256.41191547 Ry
     estimated scf accuracy    <       2.84487096 Ry

     total magnetization       =     0.00 Bohr mag/cell
     absolute magnetization    =    35.92 Bohr mag/cell

     iteration #  4     ecut=    25.00 Ry     beta= 0.40
     CG style diagonalization
     ethr =  7.26E-04,  avg # of iterations =  3.2

     negative rho (up, down):  1.638E-01 1.638E-01

     total cpu time spent up to now is      165.3 secs

     total energy              =   -4256.70918909 Ry
     estimated scf accuracy    <       0.40516341 Ry

     total magnetization       =    -0.07 Bohr mag/cell
     absolute magnetization    =    32.89 Bohr mag/cell

     iteration #  5     ecut=    25.00 Ry     beta= 0.40
     CG style diagonalization
     ethr =  1.03E-04,  avg # of iterations =  3.5

     negative rho (up, down):  1.656E-01 1.655E-01

     total cpu time spent up to now is      204.8 secs

     total energy              =   -4256.79557609 Ry
     estimated scf accuracy    <       0.40989552 Ry

     total magnetization       =     0.11 Bohr mag/cell
     absolute magnetization    =    32.01 Bohr mag/cell

     iteration #  6     ecut=    25.00 Ry     beta= 0.40
     CG style diagonalization
     ethr =  1.03E-04,  avg # of iterations =  3.2

     negative rho (up, down):  1.653E-01 1.652E-01

     total cpu time spent up to now is      241.4 secs

     total energy              =   -4256.84745545 Ry
     estimated scf accuracy    <       0.02079543 Ry

     total magnetization       =     0.04 Bohr mag/cell
     absolute magnetization    =    31.08 Bohr mag/cell

     iteration #  7     ecut=    25.00 Ry     beta= 0.40
     CG style diagonalization
     c_bands:  1 eigenvalues not converged
     ethr =  5.30E-06,  avg # of iterations =  3.5

     negative rho (up, down):  1.653E-01 1.652E-01

     total cpu time spent up to now is      281.1 secs

     total energy              =   -4256.85211339 Ry
     estimated scf accuracy    <       0.03128966 Ry

     total magnetization       =    -0.17 Bohr mag/cell
     absolute magnetization    =    30.98 Bohr mag/cell

     iteration #  8     ecut=    25.00 Ry     beta= 0.40
     CG style diagonalization
     ethr =  5.30E-06,  avg # of iterations =  3.1

     negative rho (up, down):  1.654E-01 1.653E-01

     total cpu time spent up to now is      320.2 secs

     total energy              =   -4256.85473487 Ry
     estimated scf accuracy    <       0.00783932 Ry

     total magnetization       =     0.12 Bohr mag/cell
     absolute magnetization    =    30.94 Bohr mag/cell

     iteration #  9     ecut=    25.00 Ry     beta= 0.40
     CG style diagonalization
     ethr =  2.00E-06,  avg # of iterations =  3.1

     negative rho (up, down):  1.655E-01 1.654E-01

     total cpu time spent up to now is      356.1 secs

     total energy              =   -4256.85615343 Ry
     estimated scf accuracy    <       0.01334247 Ry

     total magnetization       =    -0.00 Bohr mag/cell
     absolute magnetization    =    30.90 Bohr mag/cell

     iteration # 10     ecut=    25.00 Ry     beta= 0.40
     CG style diagonalization
     ethr =  2.00E-06,  avg # of iterations =  3.0

     negative rho (up, down):  1.655E-01 1.655E-01

     total cpu time spent up to now is      390.8 secs

     total energy              =   -4256.85603227 Ry
     estimated scf accuracy    <       0.00311953 Ry

     total magnetization       =     0.02 Bohr mag/cell
     absolute magnetization    =    30.87 Bohr mag/cell

     iteration # 11     ecut=    25.00 Ry     beta= 0.40
     CG style diagonalization
     ethr =  7.96E-07,  avg # of iterations =  3.0

     negative rho (up, down):  1.655E-01 1.655E-01

     total cpu time spent up to now is      426.5 secs

     total energy              =   -4256.85640290 Ry
     estimated scf accuracy    <       0.00221470 Ry

     total magnetization       =     0.02 Bohr mag/cell
     absolute magnetization    =    30.83 Bohr mag/cell

     iteration # 12     ecut=    25.00 Ry     beta= 0.40
     CG style diagonalization
     ethr =  5.65E-07,  avg # of iterations =  3.0

     negative rho (up, down):  1.655E-01 1.655E-01

     total cpu time spent up to now is      461.3 secs

     total energy              =   -4256.85657395 Ry
     estimated scf accuracy    <       0.00002443 Ry

     total magnetization       =     0.02 Bohr mag/cell
     absolute magnetization    =    30.84 Bohr mag/cell

     iteration # 13     ecut=    25.00 Ry     beta= 0.40
     CG style diagonalization
     ethr =  6.23E-09,  avg # of iterations =  3.9

     negative rho (up, down):  1.655E-01 1.654E-01

     total cpu time spent up to now is      505.1 secs

     total energy              =   -4256.85660132 Ry
     estimated scf accuracy    <       0.00006512 Ry

     total magnetization       =     0.02 Bohr mag/cell
     absolute magnetization    =    30.83 Bohr mag/cell

     iteration # 14     ecut=    25.00 Ry     beta= 0.40
     CG style diagonalization
     ethr =  6.23E-09,  avg # of iterations =  3.1

     negative rho (up, down):  1.655E-01 1.654E-01

     Magnetic moment per site:
     atom:    1    charge:   11.7949    magn:    0.0012    constr:    0.0000
     atom:    2    charge:   11.7950    magn:    0.0012    constr:    0.0000
     atom:    3    charge:   11.7949    magn:    0.0012    constr:    0.0000
     atom:    4    charge:   11.7950    magn:    0.0012    constr:    0.0000
     atom:    5    charge:   11.7949    magn:    0.0012    constr:    0.0000
     atom:    6    charge:   11.7950    magn:    0.0012    constr:    0.0000
     atom:    7    charge:   11.7950    magn:    0.0012    constr:    0.0000
     atom:    8    charge:   11.7949    magn:    0.0012    constr:    0.0000
     atom:    9    charge:   13.0600    magn:    3.3280    constr:    0.0000
     atom:   10    charge:   13.0600    magn:    3.3280    constr:    0.0000
     atom:   11    charge:   13.0604    magn:   -3.3274    constr:    0.0000
     atom:   12    charge:   13.0604    magn:   -3.3274    constr:    0.0000
     atom:   13    charge:   13.0600    magn:    3.3280    constr:    0.0000
     atom:   14    charge:   13.0600    magn:    3.3280    constr:    0.0000
     atom:   15    charge:   13.0604    magn:   -3.3274    constr:    0.0000
     atom:   16    charge:   13.0604    magn:   -3.3274    constr:    0.0000
     atom:   17    charge:    5.3703    magn:    0.0782    constr:    0.0000
     atom:   18    charge:    5.3683    magn:    0.0000    constr:    0.0000
     atom:   19    charge:    5.3683    magn:    0.0000    constr:    0.0000
     atom:   20    charge:    5.3703    magn:    0.0782    constr:    0.0000
     atom:   21    charge:    5.3700    magn:   -0.0780    constr:    0.0000
     atom:   22    charge:    5.3699    magn:   -0.0780    constr:    0.0000
     atom:   23    charge:    5.3705    magn:    0.0782    constr:    0.0000
     atom:   24    charge:    5.3705    magn:    0.0782    constr:    0.0000
     atom:   25    charge:    5.3699    magn:   -0.0780    constr:    0.0000
     atom:   26    charge:    5.3700    magn:   -0.0780    constr:    0.0000
     atom:   27    charge:    5.3683    magn:    0.0001    constr:    0.0000
     atom:   28    charge:    5.3683    magn:    0.0000    constr:    0.0000
     atom:   29    charge:    5.3683    magn:    0.0001    constr:    0.0000
     atom:   30    charge:    5.3683    magn:    0.0000    constr:    0.0000
     atom:   31    charge:    5.3683    magn:    0.0001    constr:    0.0000
     atom:   32    charge:    5.3683    magn:    0.0000    constr:    0.0000
     atom:   33    charge:    5.3683    magn:    0.0001    constr:    0.0000
     atom:   34    charge:    5.3683    magn:    0.0001    constr:    0.0000
     atom:   35    charge:    5.3683    magn:    0.0001    constr:    0.0000
     atom:   36    charge:    5.3683    magn:    0.0000    constr:    0.0000
     atom:   37    charge:    5.3683    magn:    0.0000    constr:    0.0000
     atom:   38    charge:    5.3683    magn:    0.0001    constr:    0.0000
     atom:   39    charge:    5.3683    magn:    0.0001    constr:    0.0000
     atom:   40    charge:    5.3683    magn:    0.0000    constr:    0.0000

     total cpu time spent up to now is      540.3 secs

     End of self-consistent calculation

 ------ SPIN UP ------------


          k = 0.0000 0.0000 0.0000 (  6979 PWs)   bands (ev):

   -78.9408 -78.9402 -78.9377 -78.9338 -74.5427 -74.5421 -74.5401 -74.5364
   -44.9273 -44.9273 -44.9227 -44.9003 -44.6921 -44.6921 -44.6881 -44.6880
   -44.6752 -44.6752 -44.6566 -44.6566 -40.6701 -40.6700 -40.6663 -40.6448
   -40.4017 -40.4017 -40.3974 -40.3973 -40.3856 -40.3856 -40.3681 -40.3681
   -11.6708 -11.6642 -11.6621 -11.6569 -11.6397 -11.6397 -11.6341 -11.6341
   -11.6295 -11.6253 -11.6253 -11.6242 -11.6240 -11.6239 -11.6237 -11.6236
   -11.6208 -11.6135 -11.6100 -11.6018 -11.6017 -11.5950 -11.5950 -11.5903
   -11.5903 -11.5884 -11.5883 -11.5883 -11.5873 -11.5873 -11.5849 -11.5849
   -11.5794 -11.5765 -11.5761 -11.5761 -11.5712 -11.5577 -11.5577 -11.5518
    -7.1751  -6.5191  -6.4149  -6.3868  -5.9155  -5.8884  -5.8213  -5.7565
    -5.7565  -5.7331  -5.7297  -5.6638  -5.5945  -5.5945  -5.5931  -5.5931
    -5.5657  -5.4338  -5.4338  -5.4021  -5.3713  -5.3166  -5.2900  -5.2841
     0.8895   0.8895   0.9081   1.2647   1.2760   1.2760   1.9432   2.0593
     5.1363   5.2258   5.2258   5.3488   5.3908   5.5487   5.5696   5.6948
     5.8939   6.2633   6.2781   6.3525   6.3681   6.4916   6.5479   6.5479
     6.7813   6.7914   6.9366   7.1270   7.1270   7.1288   7.1288   7.2401
     7.3469   7.3469   7.3845   7.3845   7.5463   7.5678   7.6523   7.6523
     7.6586   7.7030   7.7060   7.7060   7.7192   7.7553   7.7553   7.7711
     7.7711   8.0143   8.2468   8.4338   8.4338   8.5873   8.5873   8.6484
     8.7207   9.2000   9.2000   9.4329   9.4330   9.4599   9.5208   9.5208
     9.6401   9.6945   9.7297   9.7298   9.7459   9.7460   9.7657   9.7734
     9.9387  10.0536  10.0537  10.1652  10.1653  10.1704  10.1711  10.2237
    10.2656  10.2656  10.3446  10.3447  10.3479  10.4998  10.4999  10.5949
    10.8335  10.8336  10.8940  10.8941  10.9204  10.9231  10.9720  10.9782
    10.9919  11.0633  12.0051  12.1419  12.1479  12.2223  12.5010  12.5010
    12.5173  12.5174  12.5259  12.6785  12.8934  12.8999  12.8999  13.0342
    13.1338  13.1538  13.1848  13.1848  13.4948  13.8040  13.8533  13.8833
    14.1727  14.7497  14.7497  14.7584  14.8013  14.8421  14.8421  14.8856
    15.3107  15.3182  15.3183  15.3660  15.3822  15.3822  16.2258  16.3003
    16.4941  16.4941  16.5484

     occupation numbers 
     1.0000   1.0000   1.0000   1.0000   1.0000   1.0000   1.0000   1.0000
     1.0000   1.0000   1.0000   1.0000   1.0000   1.0000   1.0000   1.0000
     1.0000   1.0000   1.0000   1.0000   1.0000   1.0000   1.0000   1.0000
     1.0000   1.0000   1.0000   1.0000   1.0000   1.0000   1.0000   1.0000
     1.0000   1.0000   1.0000   1.0000   1.0000   1.0000   1.0000   1.0000
     1.0000   1.0000   1.0000   1.0000   1.0000   1.0000   1.0000   1.0000
     1.0000   1.0000   1.0000   1.0000   1.0000   1.0000   1.0000   1.0000
     1.0000   1.0000   1.0000   1.0000   1.0000   1.0000   1.0000   1.0000
     1.0000   1.0000   1.0000   1.0000   1.0000   1.0000   1.0000   1.0000
     1.0000   1.0000   1.0000   1.0000   1.0000   1.0000   1.0000   1.0000
     1.0000   1.0000   1.0000   1.0000   1.0000   1.0000   1.0000   1.0000
     1.0000   1.0000   1.0000   1.0000   1.0000   1.0000   1.0000   1.0000
     1.0000   1.0000   1.0000   1.0000   1.0000   1.0000   1.0000   1.0000
     1.0000   1.0000   1.0000   1.0000   1.0000   1.0000   1.0000   1.0000
     1.0000   1.0000   1.0000   1.0000   1.0000   1.0000   1.0000   1.0000
     1.0000   1.0000   1.0000   1.0000   1.0000   1.0000   1.0000   1.0000
     1.0000   1.0000   1.0000   1.0000   1.0000   1.0000   1.0000   1.0000
     1.0000   1.0000   1.0000   1.0000   1.0000   1.0000   1.0000   1.0000
     1.0000   1.0000   1.0000   1.0000   1.0000   1.0000   1.0000   1.0000
     1.0000   1.0000   1.0000   1.0000   1.0000   1.0000   1.0000   1.0000
     1.0000   1.0000   1.0000   1.0000   1.0000   1.0000   1.0000   1.0000
     1.0000   1.0000   1.0000   1.0000   1.0000   1.0000   1.0000   1.0000
     1.0000   1.0000   1.0000   1.0000   1.0000   1.0000   1.0000   1.0000
     1.0000   1.0000   1.0000   1.0000   1.0000   1.0000   1.0000   1.0000
     1.0000   1.0000   1.0229   0.4783   0.4417   0.0730  -0.0005  -0.0005
    -0.0003  -0.0003  -0.0002  -0.0000  -0.0000  -0.0000  -0.0000  -0.0000
    -0.0000  -0.0000  -0.0000  -0.0000  -0.0000  -0.0000  -0.0000  -0.0000
    -0.0000  -0.0000  -0.0000  -0.0000  -0.0000  -0.0000  -0.0000  -0.0000
    -0.0000  -0.0000  -0.0000  -0.0000  -0.0000  -0.0000  -0.0000  -0.0000
    -0.0000  -0.0000  -0.0000

 ------ SPIN DOWN ----------


          k = 0.0000 0.0000 0.0000 (  6979 PWs)   bands (ev):

   -78.9415 -78.9408 -78.9384 -78.9345 -74.5422 -74.5416 -74.5396 -74.5360
   -44.9275 -44.9274 -44.9229 -44.9005 -44.6930 -44.6930 -44.6890 -44.6890
   -44.6761 -44.6761 -44.6575 -44.6575 -40.6698 -40.6697 -40.6660 -40.6445
   -40.4012 -40.4011 -40.3968 -40.3968 -40.3850 -40.3850 -40.3676 -40.3676
   -11.6702 -11.6638 -11.6617 -11.6564 -11.6392 -11.6392 -11.6336 -11.6336
   -11.6295 -11.6251 -11.6251 -11.6237 -11.6236 -11.6236 -11.6232 -11.6232
   -11.6205 -11.6132 -11.6096 -11.6013 -11.6012 -11.5946 -11.5946 -11.5903
   -11.5902 -11.5882 -11.5882 -11.5881 -11.5870 -11.5870 -11.5844 -11.5844
   -11.5791 -11.5765 -11.5757 -11.5757 -11.5707 -11.5574 -11.5574 -11.5515
    -7.1748  -6.5184  -6.4152  -6.3866  -5.9149  -5.8881  -5.8202  -5.7562
    -5.7562  -5.7329  -5.7294  -5.6646  -5.5942  -5.5942  -5.5929  -5.5929
    -5.5660  -5.4336  -5.4336  -5.4016  -5.3715  -5.3169  -5.2898  -5.2839
     0.8911   0.8911   0.9095   1.2663   1.2775   1.2775   1.9448   2.0609
     5.1365   5.2266   5.2266   5.3490   5.3912   5.5490   5.5693   5.6950
     5.8937   6.2635   6.2783   6.3523   6.3679   6.4919   6.5484   6.5484
     6.7809   6.7911   6.9363   7.1269   7.1269   7.1286   7.1286   7.2396
     7.3471   7.3471   7.3841   7.3841   7.5459   7.5684   7.6534   7.6535
     7.6582   7.7042   7.7062   7.7063   7.7204   7.7555   7.7555   7.7715
     7.7715   8.0148   8.2469   8.4341   8.4341   8.5872   8.5872   8.6486
     8.7200   9.2000   9.2000   9.4332   9.4333   9.4604   9.5209   9.5209
     9.6402   9.6945   9.7300   9.7300   9.7461   9.7461   9.7657   9.7737
     9.9389  10.0540  10.0541  10.1656  10.1656  10.1702  10.1716  10.2236
    10.2658  10.2659  10.3446  10.3446  10.3481  10.5002  10.5003  10.5947
    10.8336  10.8337  10.8940  10.8941  10.9201  10.9233  10.9722  10.9779
    10.9916  11.0629  12.0056  12.1447  12.1482  12.2250  12.5012  12.5012
    12.5175  12.5176  12.5264  12.6791  12.8938  12.9003  12.9004  13.0345
    13.1344  13.1542  13.1849  13.1849  13.4950  13.8061  13.8559  13.8843
    14.1732  14.7515  14.7515  14.7604  14.8034  14.8427  14.8427  14.8861
    15.3126  15.3139  15.3202  15.3683  15.3830  15.3830  16.2276  16.3009
    16.4961  16.4961  16.5492

     occupation numbers 
     1.0000   1.0000   1.0000   1.0000   1.0000   1.0000   1.0000   1.0000
     1.0000   1.0000   1.0000   1.0000   1.0000   1.0000   1.0000   1.0000
     1.0000   1.0000   1.0000   1.0000   1.0000   1.0000   1.0000   1.0000
     1.0000   1.0000   1.0000   1.0000   1.0000   1.0000   1.0000   1.0000
     1.0000   1.0000   1.0000   1.0000   1.0000   1.0000   1.0000   1.0000
     1.0000   1.0000   1.0000   1.0000   1.0000   1.0000   1.0000   1.0000
     1.0000   1.0000   1.0000   1.0000   1.0000   1.0000   1.0000   1.0000
     1.0000   1.0000   1.0000   1.0000   1.0000   1.0000   1.0000   1.0000
     1.0000   1.0000   1.0000   1.0000   1.0000   1.0000   1.0000   1.0000
     1.0000   1.0000   1.0000   1.0000   1.0000   1.0000   1.0000   1.0000
     1.0000   1.0000   1.0000   1.0000   1.0000   1.0000   1.0000   1.0000
     1.0000   1.0000   1.0000   1.0000   1.0000   1.0000   1.0000   1.0000
     1.0000   1.0000   1.0000   1.0000   1.0000   1.0000   1.0000   1.0000
     1.0000   1.0000   1.0000   1.0000   1.0000   1.0000   1.0000   1.0000
     1.0000   1.0000   1.0000   1.0000   1.0000   1.0000   1.0000   1.0000
     1.0000   1.0000   1.0000   1.0000   1.0000   1.0000   1.0000   1.0000
     1.0000   1.0000   1.0000   1.0000   1.0000   1.0000   1.0000   1.0000
     1.0000   1.0000   1.0000   1.0000   1.0000   1.0000   1.0000   1.0000
     1.0000   1.0000   1.0000   1.0000   1.0000   1.0000   1.0000   1.0000
     1.0000   1.0000   1.0000   1.0000   1.0000   1.0000   1.0000   1.0000
     1.0000   1.0000   1.0000   1.0000   1.0000   1.0000   1.0000   1.0000
     1.0000   1.0000   1.0000   1.0000   1.0000   1.0000   1.0000   1.0000
     1.0000   1.0000   1.0000   1.0000   1.0000   1.0000   1.0000   1.0000
     1.0000   1.0000   1.0000   1.0000   1.0000   1.0000   1.0000   1.0000
     1.0000   1.0000   1.0225   0.4614   0.4395   0.0645  -0.0005  -0.0005
    -0.0003  -0.0003  -0.0002  -0.0000  -0.0000  -0.0000  -0.0000  -0.0000
    -0.0000  -0.0000  -0.0000  -0.0000  -0.0000  -0.0000  -0.0000  -0.0000
    -0.0000  -0.0000  -0.0000  -0.0000  -0.0000  -0.0000  -0.0000  -0.0000
    -0.0000  -0.0000  -0.0000  -0.0000  -0.0000  -0.0000  -0.0000  -0.0000
    -0.0000  -0.0000  -0.0000

     the Fermi energy is    12.1385 ev

!    total energy              =   -4256.85660976 Ry
     estimated scf accuracy    <       0.00000256 Ry
     smearing contrib. (-TS)   =      -0.00490208 Ry
     internal energy E=F+TS    =   -4256.85170768 Ry

     The total energy is F=E-TS. E is the sum of the following terms:
     one-electron contribution =   -1687.81888981 Ry
     hartree contribution      =    1092.37851236 Ry
     xc contribution           =    -923.80755572 Ry
     ewald contribution        =   -2737.60377451 Ry

     total magnetization       =     0.03 Bohr mag/cell
     absolute magnetization    =    30.83 Bohr mag/cell

     convergence has been achieved in  14 iterations

     Writing output data file /home/aldair1809/Documentos/QE/4BFO/temp/bifeo3.save/

     init_run     :     10.87s CPU     11.46s WALL (       1 calls)
     electrons    :    512.28s CPU    528.52s WALL (       1 calls)

     Called by init_run:
     wfcinit      :      8.63s CPU      8.72s WALL (       1 calls)
     wfcinit:atom :      0.01s CPU      0.01s WALL (       2 calls)
     wfcinit:wfcr :      8.52s CPU      8.59s WALL (       2 calls)
     potinit      :      0.27s CPU      0.33s WALL (       1 calls)
     hinit0       :      0.43s CPU      0.45s WALL (       1 calls)

     Called by electrons:
     c_bands      :    427.39s CPU    431.45s WALL (      14 calls)
     sum_band     :     58.89s CPU     65.34s WALL (      14 calls)
     v_of_rho     :      3.48s CPU      3.63s WALL (      15 calls)
     v_h          :      0.13s CPU      0.14s WALL (      15 calls)
     v_xc         :      3.36s CPU      3.49s WALL (      15 calls)
     newd         :     23.29s CPU     29.27s WALL (      15 calls)
     mix_rho      :      0.57s CPU      0.59s WALL (      14 calls)

     Called by c_bands:
     init_us_2    :      0.56s CPU      0.58s WALL (      58 calls)
     ccgdiagg     :    329.01s CPU    332.53s WALL (      28 calls)
     wfcrot       :    106.41s CPU    107.02s WALL (      28 calls)

     Called by sum_band:
     sum_band:wei :      0.02s CPU      0.02s WALL (      14 calls)
     sum_band:loo :     26.58s CPU     26.89s WALL (      14 calls)
     sum_band:buf :      0.10s CPU      0.10s WALL (      28 calls)
     sum_band:ini :      0.27s CPU      0.27s WALL (      28 calls)
     sum_band:cal :     23.06s CPU     23.10s WALL (      28 calls)
     sum_band:bec :      0.22s CPU      0.22s WALL (      28 calls)
     addusdens    :     31.75s CPU     37.86s WALL (      14 calls)
     addusd:skk   :      0.14s CPU      0.15s WALL (      56 calls)
     addusd:dgemm :     20.51s CPU     25.49s WALL (     112 calls)
     addusd:qvan2 :     10.78s CPU     10.79s WALL (     112 calls)

     Called by *cgdiagg:
     h_psi        :    181.62s CPU    184.50s WALL (   14860 calls)
     s_psi        :    136.88s CPU    137.35s WALL (   29692 calls)

     Called by h_psi:
     h_psi:calbec :     79.69s CPU     80.87s WALL (   14860 calls)
     vloc_psi     :     19.87s CPU     21.37s WALL (   14860 calls)
     add_vuspsi   :     81.64s CPU     81.87s WALL (   14860 calls)
     hs_1psi      :    183.94s CPU    186.51s WALL (   14832 calls)
     s_1psi       :    111.08s CPU    111.82s WALL (   14832 calls)

     General routines
     calbec       :    157.75s CPU    159.59s WALL (   29720 calls)
     fft          :      2.27s CPU      2.44s WALL (     369 calls)
     ffts         :      0.05s CPU      0.06s WALL (      58 calls)
     fftw         :     19.54s CPU     21.10s WALL (   49552 calls)
     interpolate  :      0.24s CPU      0.26s WALL (      30 calls)

     Parallel routines
     fft_scatt_xy :      3.57s CPU      3.82s WALL (   49979 calls)
     fft_scatt_yz :      6.04s CPU      6.70s WALL (   49979 calls)

     PWSCF        :   8m43.59s CPU   9m 0.55s WALL


   This run was terminated on:  13:21:17  24Oct2024            

=------------------------------------------------------------------------------=
   JOB DONE.
=------------------------------------------------------------------------------=
