
     Program PWSCF v.6.7MaX starts on 24Oct2024 at 14:16: 2 

     This program is part of the open-source Quantum ESPRESSO suite
     for quantum simulation of materials; please cite
         "P. Giannozzi et al., J. Phys.:Condens. Matter 21 395502 (2009);
         "P. Giannozzi et al., J. Phys.:Condens. Matter 29 465901 (2017);
          URL http://www.quantum-espresso.org", 
     in publications or presentations arising from this work. More details at
     http://www.quantum-espresso.org/quote

     Parallel version (MPI), running on     4 processors

     MPI processes distributed on     1 nodes
     R & G space division:  proc/nbgrp/npool/nimage =       4
     Waiting for input...
     Reading input from standard input

     Current dimensions of program PWSCF are:
     Max number of different atomic species (ntypx) = 10
     Max number of k-points (npk) =  40000
     Max angular momentum in pseudopotentials (lmaxx) =  3
     Message from routine iosys:
     wrong startingpot: use default (1)

     Subspace diagonalization in iterative solution of the eigenvalue problem:
     one sub-group per band group will be used
     scalapack distributed-memory algorithm (size of sub-group:  2*  2 procs)

     Found symmetry operation: I + ( -0.5000 -0.5000  0.0000)
     This is a supercell, fractional translations are disabled

     Parallelization info
     --------------------
     sticks:   dense  smooth     PW     G-vecs:    dense   smooth      PW
     Min        1592     795    198                95672    33849    4218
     Max        1593     796    199                95675    33852    4221
     Sum        6369    3181    793               382691   135403   16879



     bravais-lattice index     =            1
     lattice parameter (alat)  =      14.9137  a.u.
     unit-cell volume          =    3317.0944 (a.u.)^3
     number of atoms/cell      =           40
     number of atomic types    =            4
     number of electrons       =       392.00
     number of Kohn-Sham states=          235
     kinetic-energy cutoff     =      45.0000  Ry
     charge density cutoff     =     360.0000  Ry
     scf convergence threshold =      1.0E-05
     mixing beta               =       0.4000
     number of iterations used =            8  plain     mixing
     Exchange-correlation=  SLA  PW   PBX  PBC
                           (   1   4   3   4   0   0   0)

     celldm(1)=  14.913719  celldm(2)=   0.000000  celldm(3)=   0.000000
     celldm(4)=   0.000000  celldm(5)=   0.000000  celldm(6)=   0.000000

     crystal axes: (cart. coord. in units of alat)
               a(1) = (   1.000000   0.000000   0.000000 )  
               a(2) = (   0.000000   1.000000   0.000000 )  
               a(3) = (   0.000000   0.000000   1.000000 )  

     reciprocal axes: (cart. coord. in units 2 pi/alat)
               b(1) = (  1.000000  0.000000  0.000000 )  
               b(2) = (  0.000000  1.000000  0.000000 )  
               b(3) = (  0.000000  0.000000  1.000000 )  


     PseudoPot. # 1 for O  read from file:
     /home/aldair1809/Programas/QE/q-e-qe-7.3/pseudo/o_pbe_v1.2.uspp.F.UPF
     MD5 check sum: 734c27235a0248c51dbae37a1fbe46ec
     Pseudo is Ultrasoft + core correction, Zval =  6.0
     Generated by new atomic code, or converted to UPF format
     Using radial grid of  737 points,  5 beta functions with: 
                l(1) =   0
                l(2) =   0
                l(3) =   1
                l(4) =   1
                l(5) =   2
     Q(r) pseudized with  8 coefficients,  rinner =    0.900   0.900   0.900
                                                       0.900   0.900

     PseudoPot. # 2 for Bi read from file:
     /home/aldair1809/Programas/QE/q-e-qe-7.3/pseudo/bi_pbe_v1.uspp.F.UPF
     MD5 check sum: cceb9f28ec65b6d7ff33140f5b0b1758
     Pseudo is Ultrasoft + core correction, Zval = 15.0
     Generated by new atomic code, or converted to UPF format
     Using radial grid of  899 points,  6 beta functions with: 
                l(1) =   0
                l(2) =   0
                l(3) =   1
                l(4) =   1
                l(5) =   2
                l(6) =   2
     Q(r) pseudized with  6 coefficients,  rinner =    1.000   1.000   1.000
                                                       1.000   1.000

     PseudoPot. # 3 for Fe read from file:
     /home/aldair1809/Programas/QE/q-e-qe-7.3/pseudo/fe_pbe_v1.5.uspp.F.UPF
     MD5 check sum: a130daea23fe5165f5d574ae7f82ed95
     Pseudo is Ultrasoft + core correction, Zval = 16.0
     Generated by new atomic code, or converted to UPF format
     Using radial grid of  861 points,  6 beta functions with: 
                l(1) =   0
                l(2) =   0
                l(3) =   1
                l(4) =   1
                l(5) =   2
                l(6) =   2
     Q(r) pseudized with  8 coefficients,  rinner =    1.000   1.000   1.000
                                                       1.000   1.000

     PseudoPot. # 4 for Fe read from file:
     /home/aldair1809/Programas/QE/q-e-qe-7.3/pseudo/fe_pbe_v1.5.uspp.F.UPF
     MD5 check sum: a130daea23fe5165f5d574ae7f82ed95
     Pseudo is Ultrasoft + core correction, Zval = 16.0
     Generated by new atomic code, or converted to UPF format
     Using radial grid of  861 points,  6 beta functions with: 
                l(1) =   0
                l(2) =   0
                l(3) =   1
                l(4) =   1
                l(5) =   2
                l(6) =   2
     Q(r) pseudized with  8 coefficients,  rinner =    1.000   1.000   1.000
                                                       1.000   1.000

     atomic species   valence    mass     pseudopotential
        O              6.00    15.99940     O ( 1.00)
        Bi            15.00   208.98040     Bi( 1.00)
        Fe1           16.00    55.84500     Fe( 1.00)
        Fe2           16.00    55.84500     Fe( 1.00)

     Starting magnetic structure 
     atomic species   magnetization
        O            0.000
        Bi           0.000
        Fe1         -0.800
        Fe2          0.800

      8 Sym. Ops., with inversion, found


                                    s                        frac. trans.

      isym =  1     identity                                     

 cryst.   s( 1) = (     1          0          0      )
                  (     0          1          0      )
                  (     0          0          1      )

 cart.    s( 1) = (  1.0000000  0.0000000  0.0000000 )
                  (  0.0000000  1.0000000  0.0000000 )
                  (  0.0000000  0.0000000  1.0000000 )


      isym =  2     180 deg rotation - cart. axis [0,0,1]        

 cryst.   s( 2) = (    -1          0          0      )
                  (     0         -1          0      )
                  (     0          0          1      )

 cart.    s( 2) = ( -1.0000000  0.0000000  0.0000000 )
                  (  0.0000000 -1.0000000  0.0000000 )
                  (  0.0000000  0.0000000  1.0000000 )


      isym =  3     180 deg rotation - cart. axis [1,1,0]        

 cryst.   s( 3) = (     0          1          0      )
                  (     1          0          0      )
                  (     0          0         -1      )

 cart.    s( 3) = (  0.0000000  1.0000000  0.0000000 )
                  (  1.0000000  0.0000000  0.0000000 )
                  (  0.0000000  0.0000000 -1.0000000 )


      isym =  4     180 deg rotation - cart. axis [1,-1,0]       

 cryst.   s( 4) = (     0         -1          0      )
                  (    -1          0          0      )
                  (     0          0         -1      )

 cart.    s( 4) = (  0.0000000 -1.0000000  0.0000000 )
                  ( -1.0000000  0.0000000  0.0000000 )
                  (  0.0000000  0.0000000 -1.0000000 )


      isym =  5     inversion                                    

 cryst.   s( 5) = (    -1          0          0      )
                  (     0         -1          0      )
                  (     0          0         -1      )

 cart.    s( 5) = ( -1.0000000  0.0000000  0.0000000 )
                  (  0.0000000 -1.0000000  0.0000000 )
                  (  0.0000000  0.0000000 -1.0000000 )


      isym =  6     inv. 180 deg rotation - cart. axis [0,0,1]   

 cryst.   s( 6) = (     1          0          0      )
                  (     0          1          0      )
                  (     0          0         -1      )

 cart.    s( 6) = (  1.0000000  0.0000000  0.0000000 )
                  (  0.0000000  1.0000000  0.0000000 )
                  (  0.0000000  0.0000000 -1.0000000 )


      isym =  7     inv. 180 deg rotation - cart. axis [1,1,0]   

 cryst.   s( 7) = (     0         -1          0      )
                  (    -1          0          0      )
                  (     0          0          1      )

 cart.    s( 7) = (  0.0000000 -1.0000000  0.0000000 )
                  ( -1.0000000  0.0000000  0.0000000 )
                  (  0.0000000  0.0000000  1.0000000 )


      isym =  8     inv. 180 deg rotation - cart. axis [1,-1,0]  

 cryst.   s( 8) = (     0          1          0      )
                  (     1          0          0      )
                  (     0          0          1      )

 cart.    s( 8) = (  0.0000000  1.0000000  0.0000000 )
                  (  1.0000000  0.0000000  0.0000000 )
                  (  0.0000000  0.0000000  1.0000000 )


     point group D_2h (mmm) 
     there are  8 classes
     the character table:

       E     C2    C2'   C2''  i     s_v   s_v'  s_v''
A_g    1.00  1.00  1.00  1.00  1.00  1.00  1.00  1.00
B_1g   1.00  1.00 -1.00 -1.00  1.00  1.00 -1.00 -1.00
B_2g   1.00 -1.00  1.00 -1.00  1.00 -1.00  1.00 -1.00
B_3g   1.00 -1.00 -1.00  1.00  1.00 -1.00 -1.00  1.00
A_u    1.00  1.00  1.00  1.00 -1.00 -1.00 -1.00 -1.00
B_1u   1.00  1.00 -1.00 -1.00 -1.00 -1.00  1.00  1.00
B_2u   1.00 -1.00  1.00 -1.00 -1.00  1.00 -1.00  1.00
B_3u   1.00 -1.00 -1.00  1.00 -1.00  1.00  1.00 -1.00

     the symmetry operations in each class and the name of the first element:

     E        1
          identity                                               
     C2       2
          180 deg rotation - cart. axis [0,0,1]                  
     C2'      4
          180 deg rotation - cart. axis [1,-1,0]                 
     C2''     3
          180 deg rotation - cart. axis [1,1,0]                  
     i        5
          inversion                                              
     s_v      6
          inv. 180 deg rotation - cart. axis [0,0,1]             
     s_v'     8
          inv. 180 deg rotation - cart. axis [1,-1,0]            
     s_v''    7
          inv. 180 deg rotation - cart. axis [1,1,0]             

   Cartesian axes

     site n.     atom                  positions (alat units)
         1           Bi  tau(   1) = (   0.0000000   0.0000000   0.0000000  )
         2           Bi  tau(   2) = (   0.5000000   0.5000000   0.0000000  )
         3           Bi  tau(   3) = (   0.5000000   0.0000000   0.0000000  )
         4           Bi  tau(   4) = (   0.0000000   0.5000000   0.5000000  )
         5           Bi  tau(   5) = (   0.0000000   0.0000000   0.5000000  )
         6           Bi  tau(   6) = (   0.5000000   0.5000000   0.5000000  )
         7           Bi  tau(   7) = (   0.5000000   0.0000000   0.5000000  )
         8           Bi  tau(   8) = (   0.0000000   0.5000000   0.0000000  )
         9           Fe2 tau(   9) = (   0.2500000   0.2500000   0.2500000  )
        10           Fe2 tau(  10) = (   0.7500000   0.7500000   0.2500000  )
        11           Fe1 tau(  11) = (   0.7500000   0.2500000   0.2500000  )
        12           Fe1 tau(  12) = (   0.2500000   0.7500000   0.7500000  )
        13           Fe2 tau(  13) = (   0.2500000   0.2500000   0.7500000  )
        14           Fe2 tau(  14) = (   0.7500000   0.7500000   0.7500000  )
        15           Fe1 tau(  15) = (   0.7500000   0.2500000   0.7500000  )
        16           Fe1 tau(  16) = (   0.2500000   0.7500000   0.2500000  )
        17           O   tau(  17) = (   0.2500000   0.2500000   0.0000000  )
        18           O   tau(  18) = (   0.2500000   0.0000000   0.2500000  )
        19           O   tau(  19) = (   0.0000000   0.2500000   0.2500000  )
        20           O   tau(  20) = (   0.7500000   0.7500000   0.0000000  )
        21           O   tau(  21) = (   0.7500000   0.2500000   0.0000000  )
        22           O   tau(  22) = (   0.2500000   0.7500000   0.5000000  )
        23           O   tau(  23) = (   0.2500000   0.2500000   0.5000000  )
        24           O   tau(  24) = (   0.7500000   0.7500000   0.5000000  )
        25           O   tau(  25) = (   0.7500000   0.2500000   0.5000000  )
        26           O   tau(  26) = (   0.2500000   0.7500000   0.0000000  )
        27           O   tau(  27) = (   0.7500000   0.5000000   0.2500000  )
        28           O   tau(  28) = (   0.7500000   0.0000000   0.2500000  )
        29           O   tau(  29) = (   0.2500000   0.5000000   0.7500000  )
        30           O   tau(  30) = (   0.2500000   0.0000000   0.7500000  )
        31           O   tau(  31) = (   0.7500000   0.5000000   0.7500000  )
        32           O   tau(  32) = (   0.7500000   0.0000000   0.7500000  )
        33           O   tau(  33) = (   0.2500000   0.5000000   0.2500000  )
        34           O   tau(  34) = (   0.5000000   0.7500000   0.2500000  )
        35           O   tau(  35) = (   0.5000000   0.2500000   0.2500000  )
        36           O   tau(  36) = (   0.0000000   0.7500000   0.7500000  )
        37           O   tau(  37) = (   0.0000000   0.2500000   0.7500000  )
        38           O   tau(  38) = (   0.5000000   0.7500000   0.7500000  )
        39           O   tau(  39) = (   0.5000000   0.2500000   0.7500000  )
        40           O   tau(  40) = (   0.0000000   0.7500000   0.2500000  )

   Crystallographic axes

     site n.     atom                  positions (cryst. coord.)
         1           Bi  tau(   1) = (  0.0000000  0.0000000  0.0000000  )
         2           Bi  tau(   2) = (  0.5000000  0.5000000  0.0000000  )
         3           Bi  tau(   3) = (  0.5000000  0.0000000  0.0000000  )
         4           Bi  tau(   4) = (  0.0000000  0.5000000  0.5000000  )
         5           Bi  tau(   5) = (  0.0000000  0.0000000  0.5000000  )
         6           Bi  tau(   6) = (  0.5000000  0.5000000  0.5000000  )
         7           Bi  tau(   7) = (  0.5000000  0.0000000  0.5000000  )
         8           Bi  tau(   8) = (  0.0000000  0.5000000  0.0000000  )
         9           Fe2 tau(   9) = (  0.2500000  0.2500000  0.2500000  )
        10           Fe2 tau(  10) = (  0.7500000  0.7500000  0.2500000  )
        11           Fe1 tau(  11) = (  0.7500000  0.2500000  0.2500000  )
        12           Fe1 tau(  12) = (  0.2500000  0.7500000  0.7500000  )
        13           Fe2 tau(  13) = (  0.2500000  0.2500000  0.7500000  )
        14           Fe2 tau(  14) = (  0.7500000  0.7500000  0.7500000  )
        15           Fe1 tau(  15) = (  0.7500000  0.2500000  0.7500000  )
        16           Fe1 tau(  16) = (  0.2500000  0.7500000  0.2500000  )
        17           O   tau(  17) = (  0.2500000  0.2500000  0.0000000  )
        18           O   tau(  18) = (  0.2500000  0.0000000  0.2500000  )
        19           O   tau(  19) = (  0.0000000  0.2500000  0.2500000  )
        20           O   tau(  20) = (  0.7500000  0.7500000  0.0000000  )
        21           O   tau(  21) = (  0.7500000  0.2500000  0.0000000  )
        22           O   tau(  22) = (  0.2500000  0.7500000  0.5000000  )
        23           O   tau(  23) = (  0.2500000  0.2500000  0.5000000  )
        24           O   tau(  24) = (  0.7500000  0.7500000  0.5000000  )
        25           O   tau(  25) = (  0.7500000  0.2500000  0.5000000  )
        26           O   tau(  26) = (  0.2500000  0.7500000  0.0000000  )
        27           O   tau(  27) = (  0.7500000  0.5000000  0.2500000  )
        28           O   tau(  28) = (  0.7500000  0.0000000  0.2500000  )
        29           O   tau(  29) = (  0.2500000  0.5000000  0.7500000  )
        30           O   tau(  30) = (  0.2500000  0.0000000  0.7500000  )
        31           O   tau(  31) = (  0.7500000  0.5000000  0.7500000  )
        32           O   tau(  32) = (  0.7500000  0.0000000  0.7500000  )
        33           O   tau(  33) = (  0.2500000  0.5000000  0.2500000  )
        34           O   tau(  34) = (  0.5000000  0.7500000  0.2500000  )
        35           O   tau(  35) = (  0.5000000  0.2500000  0.2500000  )
        36           O   tau(  36) = (  0.0000000  0.7500000  0.7500000  )
        37           O   tau(  37) = (  0.0000000  0.2500000  0.7500000  )
        38           O   tau(  38) = (  0.5000000  0.7500000  0.7500000  )
        39           O   tau(  39) = (  0.5000000  0.2500000  0.7500000  )
        40           O   tau(  40) = (  0.0000000  0.7500000  0.2500000  )

     number of k points=     1  Methfessel-Paxton smearing, width (Ry)=  0.0100
                       cart. coord. in units 2pi/alat
        k(    1) = (   0.0000000   0.0000000   0.0000000), wk =   1.0000000

                       cryst. coord.
        k(    1) = (   0.0000000   0.0000000   0.0000000), wk =   1.0000000

     Dense  grid:   382691 G-vectors     FFT dimensions: (  96,  96,  96)

     Smooth grid:   135403 G-vectors     FFT dimensions: (  64,  64,  64)

     Dynamical RAM for                 wfc:      15.16 MB

     Dynamical RAM for     wfc (w. buffer):      45.47 MB

     Dynamical RAM for           str. fact:       5.84 MB

     Dynamical RAM for           local pot:       0.00 MB

     Dynamical RAM for          nlocal pot:      38.70 MB

     Dynamical RAM for                qrad:       6.09 MB

     Dynamical RAM for          rho,v,vnew:      18.88 MB

     Dynamical RAM for               rhoin:       6.29 MB

     Dynamical RAM for            rho*nmix:      46.72 MB

     Dynamical RAM for           G-vectors:       5.73 MB

     Dynamical RAM for          h,s,v(r/c):       0.63 MB

     Dynamical RAM for          <psi|beta>:       2.15 MB

     Dynamical RAM for      wfcinit/wfcrot:      36.78 MB

     Dynamical RAM for           addusdens:     308.04 MB

     Estimated static dynamical RAM per process >     191.15 MB

     Estimated max dynamical RAM per process >     499.19 MB

     Estimated total dynamical RAM >       1.95 GB

     Check: negative core charge=   -0.000007
     Generating pointlists ...
     new r_m :   0.1031 (alat units)  1.5380 (a.u.) for type    1
     new r_m :   0.1458 (alat units)  2.1750 (a.u.) for type    2
     new r_m :   0.1031 (alat units)  1.5380 (a.u.) for type    3
     new r_m :   0.1031 (alat units)  1.5380 (a.u.) for type    4

     Initial potential from superposition of free atoms

     starting charge  375.99958, renormalised to  392.00000

     negative rho (up, down):  1.701E-01 1.701E-01
     Starting wfcs are  272 randomized atomic wfcs

     total cpu time spent up to now is       31.2 secs

     Self-consistent Calculation

     iteration #  1     ecut=    45.00 Ry     beta= 0.40
     CG style diagonalization
     ethr =  1.00E-02,  avg # of iterations =  2.4

     negative rho (up, down):  1.571E-01 1.571E-01

     total cpu time spent up to now is      121.7 secs

     total energy              =   -4250.37366385 Ry
     estimated scf accuracy    <      31.53244955 Ry

     total magnetization       =    -0.00 Bohr mag/cell
     absolute magnetization    =    40.02 Bohr mag/cell

     iteration #  2     ecut=    45.00 Ry     beta= 0.40
     CG style diagonalization
     ethr =  8.04E-03,  avg # of iterations =  3.4

     negative rho (up, down):  1.564E-01 1.564E-01

     total cpu time spent up to now is      227.8 secs

     total energy              =   -4256.67197642 Ry
     estimated scf accuracy    <       8.84807686 Ry

     total magnetization       =     0.00 Bohr mag/cell
     absolute magnetization    =    36.46 Bohr mag/cell

     iteration #  3     ecut=    45.00 Ry     beta= 0.40
     CG style diagonalization
     ethr =  2.26E-03,  avg # of iterations =  3.2

     negative rho (up, down):  1.537E-01 1.538E-01

     total cpu time spent up to now is      328.9 secs

     total energy              =   -4259.17948171 Ry
     estimated scf accuracy    <       2.95515516 Ry

     total magnetization       =     0.00 Bohr mag/cell
     absolute magnetization    =    35.91 Bohr mag/cell

     iteration #  4     ecut=    45.00 Ry     beta= 0.40
     CG style diagonalization
     ethr =  7.54E-04,  avg # of iterations =  3.2

     negative rho (up, down):  1.564E-01 1.564E-01

     total cpu time spent up to now is      429.3 secs

     total energy              =   -4259.55392111 Ry
     estimated scf accuracy    <       0.17857825 Ry

     total magnetization       =    -0.04 Bohr mag/cell
     absolute magnetization    =    32.54 Bohr mag/cell

     iteration #  5     ecut=    45.00 Ry     beta= 0.40
     CG style diagonalization
     c_bands:  1 eigenvalues not converged
     ethr =  4.56E-05,  avg # of iterations =  3.9

     negative rho (up, down):  1.565E-01 1.565E-01

     total cpu time spent up to now is      547.8 secs

     total energy              =   -4259.60220775 Ry
     estimated scf accuracy    <       0.12056169 Ry

     total magnetization       =     0.61 Bohr mag/cell
     absolute magnetization    =    31.52 Bohr mag/cell

     iteration #  6     ecut=    45.00 Ry     beta= 0.40
     CG style diagonalization
     c_bands:  1 eigenvalues not converged
     ethr =  3.08E-05,  avg # of iterations =  3.3

     negative rho (up, down):  1.566E-01 1.565E-01

     total cpu time spent up to now is      652.0 secs

     total energy              =   -4259.62263348 Ry
     estimated scf accuracy    <       0.16401763 Ry

     total magnetization       =    -0.47 Bohr mag/cell
     absolute magnetization    =    31.09 Bohr mag/cell

     iteration #  7     ecut=    45.00 Ry     beta= 0.40
     CG style diagonalization
     ethr =  3.08E-05,  avg # of iterations =  3.1

     negative rho (up, down):  1.567E-01 1.565E-01

     total cpu time spent up to now is      748.7 secs

     total energy              =   -4259.63638149 Ry
     estimated scf accuracy    <       0.00808728 Ry

     total magnetization       =     0.29 Bohr mag/cell
     absolute magnetization    =    30.82 Bohr mag/cell

     iteration #  8     ecut=    45.00 Ry     beta= 0.40
     CG style diagonalization
     ethr =  2.06E-06,  avg # of iterations =  3.2

     negative rho (up, down):  1.568E-01 1.566E-01

     total cpu time spent up to now is      850.3 secs

     total energy              =   -4259.63793222 Ry
     estimated scf accuracy    <       0.00336325 Ry

     total magnetization       =     0.13 Bohr mag/cell
     absolute magnetization    =    30.72 Bohr mag/cell

     iteration #  9     ecut=    45.00 Ry     beta= 0.40
     CG style diagonalization
     ethr =  8.58E-07,  avg # of iterations =  3.2

     negative rho (up, down):  1.569E-01 1.566E-01

     total cpu time spent up to now is      951.7 secs

     total energy              =   -4259.63771015 Ry
     estimated scf accuracy    <       0.00554386 Ry

     total magnetization       =     0.15 Bohr mag/cell
     absolute magnetization    =    30.66 Bohr mag/cell

     iteration # 10     ecut=    45.00 Ry     beta= 0.40
     CG style diagonalization
     ethr =  8.58E-07,  avg # of iterations =  3.2

     negative rho (up, down):  1.569E-01 1.566E-01

     total cpu time spent up to now is     1050.6 secs

     total energy              =   -4259.63844289 Ry
     estimated scf accuracy    <       0.00614751 Ry

     total magnetization       =     0.19 Bohr mag/cell
     absolute magnetization    =    30.68 Bohr mag/cell

     iteration # 11     ecut=    45.00 Ry     beta= 0.40
     CG style diagonalization
     ethr =  8.58E-07,  avg # of iterations =  3.0

     negative rho (up, down):  1.569E-01 1.566E-01

     total cpu time spent up to now is     1146.4 secs

     total energy              =   -4259.63876292 Ry
     estimated scf accuracy    <       0.00022847 Ry

     total magnetization       =     0.20 Bohr mag/cell
     absolute magnetization    =    30.67 Bohr mag/cell

     iteration # 12     ecut=    45.00 Ry     beta= 0.40
     CG style diagonalization
     ethr =  5.83E-08,  avg # of iterations =  3.2

     negative rho (up, down):  1.570E-01 1.566E-01

     total cpu time spent up to now is     1247.2 secs

     total energy              =   -4259.63881321 Ry
     estimated scf accuracy    <       0.00007939 Ry

     total magnetization       =     0.21 Bohr mag/cell
     absolute magnetization    =    30.66 Bohr mag/cell

     iteration # 13     ecut=    45.00 Ry     beta= 0.40
     CG style diagonalization
     ethr =  2.03E-08,  avg # of iterations =  3.3

     negative rho (up, down):  1.570E-01 1.566E-01

     total cpu time spent up to now is     1350.4 secs

     total energy              =   -4259.63883945 Ry
     estimated scf accuracy    <       0.00002886 Ry

     total magnetization       =     0.25 Bohr mag/cell
     absolute magnetization    =    30.66 Bohr mag/cell

     iteration # 14     ecut=    45.00 Ry     beta= 0.40
     CG style diagonalization
     ethr =  7.36E-09,  avg # of iterations =  3.4

     negative rho (up, down):  1.571E-01 1.564E-01

     Magnetic moment per site:
     atom:    1    charge:   11.7989    magn:    0.0119    constr:    0.0000
     atom:    2    charge:   11.7990    magn:    0.0119    constr:    0.0000
     atom:    3    charge:   11.7990    magn:    0.0119    constr:    0.0000
     atom:    4    charge:   11.7989    magn:    0.0119    constr:    0.0000
     atom:    5    charge:   11.7989    magn:    0.0119    constr:    0.0000
     atom:    6    charge:   11.7990    magn:    0.0119    constr:    0.0000
     atom:    7    charge:   11.7989    magn:    0.0119    constr:    0.0000
     atom:    8    charge:   11.7990    magn:    0.0119    constr:    0.0000
     atom:    9    charge:   12.9999    magn:    3.2929    constr:    0.0000
     atom:   10    charge:   12.9999    magn:    3.2929    constr:    0.0000
     atom:   11    charge:   13.0011    magn:   -3.2857    constr:    0.0000
     atom:   12    charge:   13.0011    magn:   -3.2857    constr:    0.0000
     atom:   13    charge:   12.9999    magn:    3.2929    constr:    0.0000
     atom:   14    charge:   12.9999    magn:    3.2929    constr:    0.0000
     atom:   15    charge:   13.0011    magn:   -3.2857    constr:    0.0000
     atom:   16    charge:   13.0011    magn:   -3.2857    constr:    0.0000
     atom:   17    charge:    5.3629    magn:    0.0711    constr:    0.0000
     atom:   18    charge:    5.3621    magn:    0.0004    constr:    0.0000
     atom:   19    charge:    5.3621    magn:    0.0004    constr:    0.0000
     atom:   20    charge:    5.3629    magn:    0.0711    constr:    0.0000
     atom:   21    charge:    5.3635    magn:   -0.0682    constr:    0.0000
     atom:   22    charge:    5.3635    magn:   -0.0682    constr:    0.0000
     atom:   23    charge:    5.3628    magn:    0.0711    constr:    0.0000
     atom:   24    charge:    5.3628    magn:    0.0711    constr:    0.0000
     atom:   25    charge:    5.3635    magn:   -0.0682    constr:    0.0000
     atom:   26    charge:    5.3635    magn:   -0.0682    constr:    0.0000
     atom:   27    charge:    5.3622    magn:    0.0004    constr:    0.0000
     atom:   28    charge:    5.3621    magn:    0.0004    constr:    0.0000
     atom:   29    charge:    5.3622    magn:    0.0004    constr:    0.0000
     atom:   30    charge:    5.3621    magn:    0.0004    constr:    0.0000
     atom:   31    charge:    5.3622    magn:    0.0004    constr:    0.0000
     atom:   32    charge:    5.3621    magn:    0.0004    constr:    0.0000
     atom:   33    charge:    5.3622    magn:    0.0004    constr:    0.0000
     atom:   34    charge:    5.3622    magn:    0.0004    constr:    0.0000
     atom:   35    charge:    5.3622    magn:    0.0004    constr:    0.0000
     atom:   36    charge:    5.3621    magn:    0.0004    constr:    0.0000
     atom:   37    charge:    5.3621    magn:    0.0004    constr:    0.0000
     atom:   38    charge:    5.3622    magn:    0.0004    constr:    0.0000
     atom:   39    charge:    5.3622    magn:    0.0004    constr:    0.0000
     atom:   40    charge:    5.3621    magn:    0.0004    constr:    0.0000

     total cpu time spent up to now is     1455.2 secs

     End of self-consistent calculation

 ------ SPIN UP ------------


          k = 0.0000 0.0000 0.0000 ( 16879 PWs)   bands (ev):

   -78.5811 -78.5811 -78.5810 -78.5810 -74.1673 -74.1672 -74.1672 -74.1672
   -44.7128 -44.7127 -44.7118 -44.7118 -44.4799 -44.4799 -44.4799 -44.4798
   -44.4798 -44.4798 -44.4798 -44.4797 -40.4708 -40.4708 -40.4691 -40.4691
   -40.1664 -40.1664 -40.1664 -40.1664 -40.1663 -40.1663 -40.1662 -40.1662
   -11.6397 -11.6335 -11.6290 -11.6284 -11.6107 -11.6107 -11.6033 -11.6033
   -11.5999 -11.5959 -11.5948 -11.5947 -11.5938 -11.5937 -11.5934 -11.5934
   -11.5919 -11.5806 -11.5789 -11.5697 -11.5681 -11.5678 -11.5677 -11.5622
   -11.5609 -11.5599 -11.5599 -11.5599 -11.5594 -11.5594 -11.5582 -11.5570
   -11.5516 -11.5465 -11.5453 -11.5453 -11.5425 -11.5279 -11.5278 -11.5204
    -7.0897  -6.4196  -6.3269  -6.2892  -5.8104  -5.7885  -5.7038  -5.6486
    -5.6486  -5.6271  -5.6242  -5.5689  -5.4801  -5.4801  -5.4787  -5.4787
    -5.4620  -5.3169  -5.3169  -5.2901  -5.2666  -5.2152  -5.1788  -5.1711
     0.9139   0.9139   0.9339   1.3044   1.3171   1.3171   1.9769   2.1073
     5.1075   5.2305   5.2305   5.3506   5.3578   5.4830   5.5174   5.6465
     5.7964   6.1711   6.2319   6.3052   6.3170   6.4859   6.5455   6.5456
     6.6981   6.7030   6.9153   7.1086   7.1087   7.1150   7.1150   7.2220
     7.3294   7.3294   7.3901   7.3901   7.5175   7.5559   7.5859   7.6513
     7.6513   7.6530   7.6530   7.7011   7.7011   7.7085   7.7226   7.7773
     7.7773   7.9883   8.1794   8.3772   8.3772   8.5539   8.5539   8.6140
     8.7807   9.2059   9.2059   9.3720   9.3720   9.4021   9.5511   9.5511
     9.6868   9.7421   9.7423   9.7423   9.7506   9.7704   9.7704   9.7754
     9.8987  10.0191  10.0191  10.1268  10.1294  10.1294  10.1414  10.2144
    10.2308  10.2308  10.3417  10.3417  10.3526  10.5346  10.5346  10.6173
    10.8365  10.8366  10.8775  10.8776  10.9276  10.9535  10.9552  10.9570
    10.9959  11.0982  12.0679  12.1704  12.2073  12.2365  12.5059  12.5059
    12.5653  12.5654  12.5997  12.7431  12.9437  12.9437  12.9615  13.0525
    13.1315  13.1929  13.2373  13.2373  13.5107  13.8256  13.8715  13.9067
    14.2363  14.7523  14.7524  14.7650  14.8052  14.8512  14.8512  14.9986
    15.3198  15.3261  15.3263  15.3732  15.3943  15.3943  16.2577  16.3374
    16.5118  16.5118  16.5709

     occupation numbers 
     1.0000   1.0000   1.0000   1.0000   1.0000   1.0000   1.0000   1.0000
     1.0000   1.0000   1.0000   1.0000   1.0000   1.0000   1.0000   1.0000
     1.0000   1.0000   1.0000   1.0000   1.0000   1.0000   1.0000   1.0000
     1.0000   1.0000   1.0000   1.0000   1.0000   1.0000   1.0000   1.0000
     1.0000   1.0000   1.0000   1.0000   1.0000   1.0000   1.0000   1.0000
     1.0000   1.0000   1.0000   1.0000   1.0000   1.0000   1.0000   1.0000
     1.0000   1.0000   1.0000   1.0000   1.0000   1.0000   1.0000   1.0000
     1.0000   1.0000   1.0000   1.0000   1.0000   1.0000   1.0000   1.0000
     1.0000   1.0000   1.0000   1.0000   1.0000   1.0000   1.0000   1.0000
     1.0000   1.0000   1.0000   1.0000   1.0000   1.0000   1.0000   1.0000
     1.0000   1.0000   1.0000   1.0000   1.0000   1.0000   1.0000   1.0000
     1.0000   1.0000   1.0000   1.0000   1.0000   1.0000   1.0000   1.0000
     1.0000   1.0000   1.0000   1.0000   1.0000   1.0000   1.0000   1.0000
     1.0000   1.0000   1.0000   1.0000   1.0000   1.0000   1.0000   1.0000
     1.0000   1.0000   1.0000   1.0000   1.0000   1.0000   1.0000   1.0000
     1.0000   1.0000   1.0000   1.0000   1.0000   1.0000   1.0000   1.0000
     1.0000   1.0000   1.0000   1.0000   1.0000   1.0000   1.0000   1.0000
     1.0000   1.0000   1.0000   1.0000   1.0000   1.0000   1.0000   1.0000
     1.0000   1.0000   1.0000   1.0000   1.0000   1.0000   1.0000   1.0000
     1.0000   1.0000   1.0000   1.0000   1.0000   1.0000   1.0000   1.0000
     1.0000   1.0000   1.0000   1.0000   1.0000   1.0000   1.0000   1.0000
     1.0000   1.0000   1.0000   1.0000   1.0000   1.0000   1.0000   1.0000
     1.0000   1.0000   1.0000   1.0000   1.0000   1.0000   1.0000   1.0000
     1.0000   1.0000   1.0000   1.0000   1.0000   1.0000   1.0000   1.0000
     1.0000   1.0000   1.0029   0.5860   0.3593   0.2002  -0.0021  -0.0021
    -0.0003  -0.0003  -0.0001  -0.0000  -0.0000  -0.0000  -0.0000  -0.0000
    -0.0000  -0.0000  -0.0000  -0.0000  -0.0000  -0.0000  -0.0000  -0.0000
    -0.0000  -0.0000  -0.0000  -0.0000  -0.0000  -0.0000  -0.0000  -0.0000
    -0.0000  -0.0000  -0.0000  -0.0000  -0.0000  -0.0000  -0.0000  -0.0000
    -0.0000  -0.0000  -0.0000

 ------ SPIN DOWN ----------


          k = 0.0000 0.0000 0.0000 ( 16879 PWs)   bands (ev):

   -78.5728 -78.5728 -78.5728 -78.5728 -74.1634 -74.1634 -74.1634 -74.1634
   -44.7075 -44.7075 -44.7066 -44.7066 -44.4706 -44.4706 -44.4706 -44.4706
   -44.4705 -44.4705 -44.4705 -44.4705 -40.4610 -40.4609 -40.4592 -40.4592
   -40.1658 -40.1658 -40.1658 -40.1657 -40.1656 -40.1656 -40.1656 -40.1656
   -11.6346 -11.6300 -11.6252 -11.6233 -11.6062 -11.6062 -11.5989 -11.5986
   -11.5986 -11.5919 -11.5915 -11.5915 -11.5912 -11.5912 -11.5895 -11.5895
   -11.5891 -11.5776 -11.5753 -11.5649 -11.5647 -11.5646 -11.5633 -11.5612
   -11.5600 -11.5575 -11.5575 -11.5572 -11.5572 -11.5568 -11.5542 -11.5530
   -11.5490 -11.5455 -11.5423 -11.5423 -11.5385 -11.5253 -11.5252 -11.5179
    -7.0870  -6.4216  -6.3202  -6.2884  -5.8094  -5.7866  -5.7081  -5.6471
    -5.6471  -5.6265  -5.6233  -5.5575  -5.4791  -5.4791  -5.4779  -5.4779
    -5.4558  -5.3162  -5.3162  -5.2914  -5.2626  -5.2095  -5.1780  -5.1703
     0.9280   0.9280   0.9456   1.3185   1.3300   1.3300   1.9910   2.1212
     5.1083   5.2381   5.2381   5.3505   5.3603   5.4863   5.5230   5.6492
     5.8014   6.1740   6.2347   6.3103   6.3222   6.4896   6.5490   6.5490
     6.7082   6.7135   6.9201   7.1105   7.1105   7.1179   7.1179   7.2266
     7.3364   7.3364   7.3927   7.3927   7.5157   7.5618   7.5951   7.6528
     7.6529   7.6637   7.6638   7.7021   7.7021   7.7174   7.7330   7.7795
     7.7795   7.9914   8.1843   8.3783   8.3783   8.5604   8.5604   8.6147
     8.7872   9.2093   9.2093   9.3741   9.3741   9.4053   9.5534   9.5534
     9.6904   9.7443   9.7443   9.7486   9.7567   9.7749   9.7749   9.7762
     9.9028  10.0216  10.0216  10.1305  10.1305  10.1315  10.1409  10.2199
    10.2317  10.2317  10.3455  10.3455  10.3537  10.5340  10.5341  10.6206
    10.8378  10.8379  10.8797  10.8797  10.9285  10.9560  10.9601  10.9636
    11.0056  11.1066  12.0736  12.1938  12.2110  12.2632  12.5084  12.5084
    12.5676  12.5676  12.5989  12.7477  12.9485  12.9486  12.9609  13.0628
    13.1308  13.1919  13.2412  13.2412  13.5209  13.8438  13.8947  13.9150
    14.2396  14.7691  14.7691  14.7804  14.8239  14.8557  14.8557  15.0020
    15.3359  15.3434  15.3939  15.4006  15.4007  15.4738  16.2741  16.3418
    16.5295  16.5295  16.5765

     occupation numbers 
     1.0000   1.0000   1.0000   1.0000   1.0000   1.0000   1.0000   1.0000
     1.0000   1.0000   1.0000   1.0000   1.0000   1.0000   1.0000   1.0000
     1.0000   1.0000   1.0000   1.0000   1.0000   1.0000   1.0000   1.0000
     1.0000   1.0000   1.0000   1.0000   1.0000   1.0000   1.0000   1.0000
     1.0000   1.0000   1.0000   1.0000   1.0000   1.0000   1.0000   1.0000
     1.0000   1.0000   1.0000   1.0000   1.0000   1.0000   1.0000   1.0000
     1.0000   1.0000   1.0000   1.0000   1.0000   1.0000   1.0000   1.0000
     1.0000   1.0000   1.0000   1.0000   1.0000   1.0000   1.0000   1.0000
     1.0000   1.0000   1.0000   1.0000   1.0000   1.0000   1.0000   1.0000
     1.0000   1.0000   1.0000   1.0000   1.0000   1.0000   1.0000   1.0000
     1.0000   1.0000   1.0000   1.0000   1.0000   1.0000   1.0000   1.0000
     1.0000   1.0000   1.0000   1.0000   1.0000   1.0000   1.0000   1.0000
     1.0000   1.0000   1.0000   1.0000   1.0000   1.0000   1.0000   1.0000
     1.0000   1.0000   1.0000   1.0000   1.0000   1.0000   1.0000   1.0000
     1.0000   1.0000   1.0000   1.0000   1.0000   1.0000   1.0000   1.0000
     1.0000   1.0000   1.0000   1.0000   1.0000   1.0000   1.0000   1.0000
     1.0000   1.0000   1.0000   1.0000   1.0000   1.0000   1.0000   1.0000
     1.0000   1.0000   1.0000   1.0000   1.0000   1.0000   1.0000   1.0000
     1.0000   1.0000   1.0000   1.0000   1.0000   1.0000   1.0000   1.0000
     1.0000   1.0000   1.0000   1.0000   1.0000   1.0000   1.0000   1.0000
     1.0000   1.0000   1.0000   1.0000   1.0000   1.0000   1.0000   1.0000
     1.0000   1.0000   1.0000   1.0000   1.0000   1.0000   1.0000   1.0000
     1.0000   1.0000   1.0000   1.0000   1.0000   1.0000   1.0000   1.0000
     1.0000   1.0000   1.0000   1.0000   1.0000   1.0000   1.0000   1.0000
     1.0000   1.0000   0.9934   0.4409   0.3372   0.0892  -0.0019  -0.0019
    -0.0003  -0.0002  -0.0001  -0.0000  -0.0000  -0.0000  -0.0000  -0.0000
    -0.0000  -0.0000  -0.0000  -0.0000  -0.0000  -0.0000  -0.0000  -0.0000
    -0.0000  -0.0000  -0.0000  -0.0000  -0.0000  -0.0000  -0.0000  -0.0000
    -0.0000  -0.0000  -0.0000  -0.0000  -0.0000  -0.0000  -0.0000  -0.0000
    -0.0000  -0.0000  -0.0000

     the Fermi energy is    12.1843 ev

!    total energy              =   -4259.63886332 Ry
     estimated scf accuracy    <       0.00000674 Ry
     smearing contrib. (-TS)   =      -0.00569640 Ry
     internal energy E=F+TS    =   -4259.63316692 Ry

     The total energy is F=E-TS. E is the sum of the following terms:
     one-electron contribution =   -1694.18442920 Ry
     hartree contribution      =    1096.86511391 Ry
     xc contribution           =    -924.71007712 Ry
     ewald contribution        =   -2737.60377451 Ry

     total magnetization       =     0.29 Bohr mag/cell
     absolute magnetization    =    30.66 Bohr mag/cell

     convergence has been achieved in  14 iterations

     Writing output data file /home/aldair1809/Documentos/QE/4BFO/temp/bifeo3.save/

     init_run     :     29.25s CPU     30.76s WALL (       1 calls)
     electrons    :   1383.84s CPU   1424.08s WALL (       1 calls)

     Called by init_run:
     wfcinit      :     22.28s CPU     22.55s WALL (       1 calls)
     wfcinit:atom :      0.02s CPU      0.04s WALL (       2 calls)
     wfcinit:wfcr :     22.06s CPU     22.23s WALL (       2 calls)
     potinit      :      0.75s CPU      0.87s WALL (       1 calls)
     hinit0       :      0.77s CPU      0.81s WALL (       1 calls)

     Called by electrons:
     c_bands      :   1055.49s CPU   1062.88s WALL (      14 calls)
     sum_band     :    243.14s CPU    260.22s WALL (      14 calls)
     v_of_rho     :      9.07s CPU      9.91s WALL (      15 calls)
     v_h          :      0.38s CPU      0.40s WALL (      15 calls)
     v_xc         :      8.69s CPU      9.51s WALL (      15 calls)
     newd         :     79.04s CPU     94.98s WALL (      15 calls)
     mix_rho      :      1.86s CPU      1.93s WALL (      14 calls)

     Called by c_bands:
     init_us_2    :      1.31s CPU      1.34s WALL (      58 calls)
     ccgdiagg     :    811.63s CPU    817.72s WALL (      28 calls)
     wfcrot       :    264.53s CPU    265.98s WALL (      28 calls)

     Called by sum_band:
     sum_band:wei :      0.01s CPU      0.01s WALL (      14 calls)
     sum_band:loo :     70.50s CPU     71.32s WALL (      14 calls)
     sum_band:buf :      0.25s CPU      0.25s WALL (      28 calls)
     sum_band:ini :      0.62s CPU      0.62s WALL (      28 calls)
     sum_band:cal :     55.14s CPU     55.19s WALL (      28 calls)
     sum_band:bec :      0.22s CPU      0.22s WALL (      28 calls)
     addusdens    :    170.69s CPU    186.85s WALL (      14 calls)
     addusd:skk   :      0.34s CPU      0.77s WALL (      56 calls)
     addusd:dgemm :    114.59s CPU    127.10s WALL (     112 calls)
     addusd:qvan2 :     55.10s CPU     55.16s WALL (     112 calls)

     Called by *cgdiagg:
     h_psi        :    471.78s CPU    477.60s WALL (   15102 calls)
     s_psi        :    325.74s CPU    326.38s WALL (   30176 calls)

     Called by h_psi:
     h_psi:calbec :    188.87s CPU    190.33s WALL (   15102 calls)
     vloc_psi     :     88.79s CPU     92.82s WALL (   15102 calls)
     add_vuspsi   :    193.43s CPU    193.78s WALL (   15102 calls)
     hs_1psi      :    462.69s CPU    467.46s WALL (   15074 calls)
     s_1psi       :    264.65s CPU    265.53s WALL (   15074 calls)

     General routines
     calbec       :    375.45s CPU    377.65s WALL (   30204 calls)
     fft          :      7.54s CPU      7.90s WALL (     369 calls)
     ffts         :      0.23s CPU      0.26s WALL (      58 calls)
     fftw         :     85.46s CPU     89.82s WALL (   50036 calls)
     interpolate  :      0.84s CPU      0.88s WALL (      30 calls)

     Parallel routines
     fft_scatt_xy :     14.86s CPU     15.81s WALL (   50463 calls)
     fft_scatt_yz :     19.24s CPU     21.46s WALL (   50463 calls)

     PWSCF        :  23m33.57s CPU  24m15.67s WALL


   This run was terminated on:  14:40:17  24Oct2024            

=------------------------------------------------------------------------------=
   JOB DONE.
=------------------------------------------------------------------------------=
