
     Program PWSCF v.6.7MaX starts on 24Oct2024 at 14:40:18 

     This program is part of the open-source Quantum ESPRESSO suite
     for quantum simulation of materials; please cite
         "P. Giannozzi et al., J. Phys.:Condens. Matter 21 395502 (2009);
         "P. Giannozzi et al., J. Phys.:Condens. Matter 29 465901 (2017);
          URL http://www.quantum-espresso.org", 
     in publications or presentations arising from this work. More details at
     http://www.quantum-espresso.org/quote

     Parallel version (MPI), running on     4 processors

     MPI processes distributed on     1 nodes
     R & G space division:  proc/nbgrp/npool/nimage =       4
     Waiting for input...
     Reading input from standard input

     Current dimensions of program PWSCF are:
     Max number of different atomic species (ntypx) = 10
     Max number of k-points (npk) =  40000
     Max angular momentum in pseudopotentials (lmaxx) =  3
     Message from routine iosys:
     wrong startingpot: use default (1)

     Subspace diagonalization in iterative solution of the eigenvalue problem:
     one sub-group per band group will be used
     scalapack distributed-memory algorithm (size of sub-group:  2*  2 procs)

     Found symmetry operation: I + ( -0.5000 -0.5000  0.0000)
     This is a supercell, fractional translations are disabled

     Parallelization info
     --------------------
     sticks:   dense  smooth     PW     G-vecs:    dense   smooth      PW
     Min        1772     885    220               112080    39653    4959
     Max        1773     887    223               112083    39656    4960
     Sum        7089    3545    885               448327   158619   19837



     bravais-lattice index     =            1
     lattice parameter (alat)  =      14.9137  a.u.
     unit-cell volume          =    3317.0944 (a.u.)^3
     number of atoms/cell      =           40
     number of atomic types    =            4
     number of electrons       =       392.00
     number of Kohn-Sham states=          235
     kinetic-energy cutoff     =      50.0000  Ry
     charge density cutoff     =     400.0000  Ry
     scf convergence threshold =      1.0E-05
     mixing beta               =       0.4000
     number of iterations used =            8  plain     mixing
     Exchange-correlation=  SLA  PW   PBX  PBC
                           (   1   4   3   4   0   0   0)

     celldm(1)=  14.913719  celldm(2)=   0.000000  celldm(3)=   0.000000
     celldm(4)=   0.000000  celldm(5)=   0.000000  celldm(6)=   0.000000

     crystal axes: (cart. coord. in units of alat)
               a(1) = (   1.000000   0.000000   0.000000 )  
               a(2) = (   0.000000   1.000000   0.000000 )  
               a(3) = (   0.000000   0.000000   1.000000 )  

     reciprocal axes: (cart. coord. in units 2 pi/alat)
               b(1) = (  1.000000  0.000000  0.000000 )  
               b(2) = (  0.000000  1.000000  0.000000 )  
               b(3) = (  0.000000  0.000000  1.000000 )  


     PseudoPot. # 1 for O  read from file:
     /home/aldair1809/Programas/QE/q-e-qe-7.3/pseudo/o_pbe_v1.2.uspp.F.UPF
     MD5 check sum: 734c27235a0248c51dbae37a1fbe46ec
     Pseudo is Ultrasoft + core correction, Zval =  6.0
     Generated by new atomic code, or converted to UPF format
     Using radial grid of  737 points,  5 beta functions with: 
                l(1) =   0
                l(2) =   0
                l(3) =   1
                l(4) =   1
                l(5) =   2
     Q(r) pseudized with  8 coefficients,  rinner =    0.900   0.900   0.900
                                                       0.900   0.900

     PseudoPot. # 2 for Bi read from file:
     /home/aldair1809/Programas/QE/q-e-qe-7.3/pseudo/bi_pbe_v1.uspp.F.UPF
     MD5 check sum: cceb9f28ec65b6d7ff33140f5b0b1758
     Pseudo is Ultrasoft + core correction, Zval = 15.0
     Generated by new atomic code, or converted to UPF format
     Using radial grid of  899 points,  6 beta functions with: 
                l(1) =   0
                l(2) =   0
                l(3) =   1
                l(4) =   1
                l(5) =   2
                l(6) =   2
     Q(r) pseudized with  6 coefficients,  rinner =    1.000   1.000   1.000
                                                       1.000   1.000

     PseudoPot. # 3 for Fe read from file:
     /home/aldair1809/Programas/QE/q-e-qe-7.3/pseudo/fe_pbe_v1.5.uspp.F.UPF
     MD5 check sum: a130daea23fe5165f5d574ae7f82ed95
     Pseudo is Ultrasoft + core correction, Zval = 16.0
     Generated by new atomic code, or converted to UPF format
     Using radial grid of  861 points,  6 beta functions with: 
                l(1) =   0
                l(2) =   0
                l(3) =   1
                l(4) =   1
                l(5) =   2
                l(6) =   2
     Q(r) pseudized with  8 coefficients,  rinner =    1.000   1.000   1.000
                                                       1.000   1.000

     PseudoPot. # 4 for Fe read from file:
     /home/aldair1809/Programas/QE/q-e-qe-7.3/pseudo/fe_pbe_v1.5.uspp.F.UPF
     MD5 check sum: a130daea23fe5165f5d574ae7f82ed95
     Pseudo is Ultrasoft + core correction, Zval = 16.0
     Generated by new atomic code, or converted to UPF format
     Using radial grid of  861 points,  6 beta functions with: 
                l(1) =   0
                l(2) =   0
                l(3) =   1
                l(4) =   1
                l(5) =   2
                l(6) =   2
     Q(r) pseudized with  8 coefficients,  rinner =    1.000   1.000   1.000
                                                       1.000   1.000

     atomic species   valence    mass     pseudopotential
        O              6.00    15.99940     O ( 1.00)
        Bi            15.00   208.98040     Bi( 1.00)
        Fe1           16.00    55.84500     Fe( 1.00)
        Fe2           16.00    55.84500     Fe( 1.00)

     Starting magnetic structure 
     atomic species   magnetization
        O            0.000
        Bi           0.000
        Fe1         -0.800
        Fe2          0.800

      8 Sym. Ops., with inversion, found


                                    s                        frac. trans.

      isym =  1     identity                                     

 cryst.   s( 1) = (     1          0          0      )
                  (     0          1          0      )
                  (     0          0          1      )

 cart.    s( 1) = (  1.0000000  0.0000000  0.0000000 )
                  (  0.0000000  1.0000000  0.0000000 )
                  (  0.0000000  0.0000000  1.0000000 )


      isym =  2     180 deg rotation - cart. axis [0,0,1]        

 cryst.   s( 2) = (    -1          0          0      )
                  (     0         -1          0      )
                  (     0          0          1      )

 cart.    s( 2) = ( -1.0000000  0.0000000  0.0000000 )
                  (  0.0000000 -1.0000000  0.0000000 )
                  (  0.0000000  0.0000000  1.0000000 )


      isym =  3     180 deg rotation - cart. axis [1,1,0]        

 cryst.   s( 3) = (     0          1          0      )
                  (     1          0          0      )
                  (     0          0         -1      )

 cart.    s( 3) = (  0.0000000  1.0000000  0.0000000 )
                  (  1.0000000  0.0000000  0.0000000 )
                  (  0.0000000  0.0000000 -1.0000000 )


      isym =  4     180 deg rotation - cart. axis [1,-1,0]       

 cryst.   s( 4) = (     0         -1          0      )
                  (    -1          0          0      )
                  (     0          0         -1      )

 cart.    s( 4) = (  0.0000000 -1.0000000  0.0000000 )
                  ( -1.0000000  0.0000000  0.0000000 )
                  (  0.0000000  0.0000000 -1.0000000 )


      isym =  5     inversion                                    

 cryst.   s( 5) = (    -1          0          0      )
                  (     0         -1          0      )
                  (     0          0         -1      )

 cart.    s( 5) = ( -1.0000000  0.0000000  0.0000000 )
                  (  0.0000000 -1.0000000  0.0000000 )
                  (  0.0000000  0.0000000 -1.0000000 )


      isym =  6     inv. 180 deg rotation - cart. axis [0,0,1]   

 cryst.   s( 6) = (     1          0          0      )
                  (     0          1          0      )
                  (     0          0         -1      )

 cart.    s( 6) = (  1.0000000  0.0000000  0.0000000 )
                  (  0.0000000  1.0000000  0.0000000 )
                  (  0.0000000  0.0000000 -1.0000000 )


      isym =  7     inv. 180 deg rotation - cart. axis [1,1,0]   

 cryst.   s( 7) = (     0         -1          0      )
                  (    -1          0          0      )
                  (     0          0          1      )

 cart.    s( 7) = (  0.0000000 -1.0000000  0.0000000 )
                  ( -1.0000000  0.0000000  0.0000000 )
                  (  0.0000000  0.0000000  1.0000000 )


      isym =  8     inv. 180 deg rotation - cart. axis [1,-1,0]  

 cryst.   s( 8) = (     0          1          0      )
                  (     1          0          0      )
                  (     0          0          1      )

 cart.    s( 8) = (  0.0000000  1.0000000  0.0000000 )
                  (  1.0000000  0.0000000  0.0000000 )
                  (  0.0000000  0.0000000  1.0000000 )


     point group D_2h (mmm) 
     there are  8 classes
     the character table:

       E     C2    C2'   C2''  i     s_v   s_v'  s_v''
A_g    1.00  1.00  1.00  1.00  1.00  1.00  1.00  1.00
B_1g   1.00  1.00 -1.00 -1.00  1.00  1.00 -1.00 -1.00
B_2g   1.00 -1.00  1.00 -1.00  1.00 -1.00  1.00 -1.00
B_3g   1.00 -1.00 -1.00  1.00  1.00 -1.00 -1.00  1.00
A_u    1.00  1.00  1.00  1.00 -1.00 -1.00 -1.00 -1.00
B_1u   1.00  1.00 -1.00 -1.00 -1.00 -1.00  1.00  1.00
B_2u   1.00 -1.00  1.00 -1.00 -1.00  1.00 -1.00  1.00
B_3u   1.00 -1.00 -1.00  1.00 -1.00  1.00  1.00 -1.00

     the symmetry operations in each class and the name of the first element:

     E        1
          identity                                               
     C2       2
          180 deg rotation - cart. axis [0,0,1]                  
     C2'      4
          180 deg rotation - cart. axis [1,-1,0]                 
     C2''     3
          180 deg rotation - cart. axis [1,1,0]                  
     i        5
          inversion                                              
     s_v      6
          inv. 180 deg rotation - cart. axis [0,0,1]             
     s_v'     8
          inv. 180 deg rotation - cart. axis [1,-1,0]            
     s_v''    7
          inv. 180 deg rotation - cart. axis [1,1,0]             

   Cartesian axes

     site n.     atom                  positions (alat units)
         1           Bi  tau(   1) = (   0.0000000   0.0000000   0.0000000  )
         2           Bi  tau(   2) = (   0.5000000   0.5000000   0.0000000  )
         3           Bi  tau(   3) = (   0.5000000   0.0000000   0.0000000  )
         4           Bi  tau(   4) = (   0.0000000   0.5000000   0.5000000  )
         5           Bi  tau(   5) = (   0.0000000   0.0000000   0.5000000  )
         6           Bi  tau(   6) = (   0.5000000   0.5000000   0.5000000  )
         7           Bi  tau(   7) = (   0.5000000   0.0000000   0.5000000  )
         8           Bi  tau(   8) = (   0.0000000   0.5000000   0.0000000  )
         9           Fe2 tau(   9) = (   0.2500000   0.2500000   0.2500000  )
        10           Fe2 tau(  10) = (   0.7500000   0.7500000   0.2500000  )
        11           Fe1 tau(  11) = (   0.7500000   0.2500000   0.2500000  )
        12           Fe1 tau(  12) = (   0.2500000   0.7500000   0.7500000  )
        13           Fe2 tau(  13) = (   0.2500000   0.2500000   0.7500000  )
        14           Fe2 tau(  14) = (   0.7500000   0.7500000   0.7500000  )
        15           Fe1 tau(  15) = (   0.7500000   0.2500000   0.7500000  )
        16           Fe1 tau(  16) = (   0.2500000   0.7500000   0.2500000  )
        17           O   tau(  17) = (   0.2500000   0.2500000   0.0000000  )
        18           O   tau(  18) = (   0.2500000   0.0000000   0.2500000  )
        19           O   tau(  19) = (   0.0000000   0.2500000   0.2500000  )
        20           O   tau(  20) = (   0.7500000   0.7500000   0.0000000  )
        21           O   tau(  21) = (   0.7500000   0.2500000   0.0000000  )
        22           O   tau(  22) = (   0.2500000   0.7500000   0.5000000  )
        23           O   tau(  23) = (   0.2500000   0.2500000   0.5000000  )
        24           O   tau(  24) = (   0.7500000   0.7500000   0.5000000  )
        25           O   tau(  25) = (   0.7500000   0.2500000   0.5000000  )
        26           O   tau(  26) = (   0.2500000   0.7500000   0.0000000  )
        27           O   tau(  27) = (   0.7500000   0.5000000   0.2500000  )
        28           O   tau(  28) = (   0.7500000   0.0000000   0.2500000  )
        29           O   tau(  29) = (   0.2500000   0.5000000   0.7500000  )
        30           O   tau(  30) = (   0.2500000   0.0000000   0.7500000  )
        31           O   tau(  31) = (   0.7500000   0.5000000   0.7500000  )
        32           O   tau(  32) = (   0.7500000   0.0000000   0.7500000  )
        33           O   tau(  33) = (   0.2500000   0.5000000   0.2500000  )
        34           O   tau(  34) = (   0.5000000   0.7500000   0.2500000  )
        35           O   tau(  35) = (   0.5000000   0.2500000   0.2500000  )
        36           O   tau(  36) = (   0.0000000   0.7500000   0.7500000  )
        37           O   tau(  37) = (   0.0000000   0.2500000   0.7500000  )
        38           O   tau(  38) = (   0.5000000   0.7500000   0.7500000  )
        39           O   tau(  39) = (   0.5000000   0.2500000   0.7500000  )
        40           O   tau(  40) = (   0.0000000   0.7500000   0.2500000  )

   Crystallographic axes

     site n.     atom                  positions (cryst. coord.)
         1           Bi  tau(   1) = (  0.0000000  0.0000000  0.0000000  )
         2           Bi  tau(   2) = (  0.5000000  0.5000000  0.0000000  )
         3           Bi  tau(   3) = (  0.5000000  0.0000000  0.0000000  )
         4           Bi  tau(   4) = (  0.0000000  0.5000000  0.5000000  )
         5           Bi  tau(   5) = (  0.0000000  0.0000000  0.5000000  )
         6           Bi  tau(   6) = (  0.5000000  0.5000000  0.5000000  )
         7           Bi  tau(   7) = (  0.5000000  0.0000000  0.5000000  )
         8           Bi  tau(   8) = (  0.0000000  0.5000000  0.0000000  )
         9           Fe2 tau(   9) = (  0.2500000  0.2500000  0.2500000  )
        10           Fe2 tau(  10) = (  0.7500000  0.7500000  0.2500000  )
        11           Fe1 tau(  11) = (  0.7500000  0.2500000  0.2500000  )
        12           Fe1 tau(  12) = (  0.2500000  0.7500000  0.7500000  )
        13           Fe2 tau(  13) = (  0.2500000  0.2500000  0.7500000  )
        14           Fe2 tau(  14) = (  0.7500000  0.7500000  0.7500000  )
        15           Fe1 tau(  15) = (  0.7500000  0.2500000  0.7500000  )
        16           Fe1 tau(  16) = (  0.2500000  0.7500000  0.2500000  )
        17           O   tau(  17) = (  0.2500000  0.2500000  0.0000000  )
        18           O   tau(  18) = (  0.2500000  0.0000000  0.2500000  )
        19           O   tau(  19) = (  0.0000000  0.2500000  0.2500000  )
        20           O   tau(  20) = (  0.7500000  0.7500000  0.0000000  )
        21           O   tau(  21) = (  0.7500000  0.2500000  0.0000000  )
        22           O   tau(  22) = (  0.2500000  0.7500000  0.5000000  )
        23           O   tau(  23) = (  0.2500000  0.2500000  0.5000000  )
        24           O   tau(  24) = (  0.7500000  0.7500000  0.5000000  )
        25           O   tau(  25) = (  0.7500000  0.2500000  0.5000000  )
        26           O   tau(  26) = (  0.2500000  0.7500000  0.0000000  )
        27           O   tau(  27) = (  0.7500000  0.5000000  0.2500000  )
        28           O   tau(  28) = (  0.7500000  0.0000000  0.2500000  )
        29           O   tau(  29) = (  0.2500000  0.5000000  0.7500000  )
        30           O   tau(  30) = (  0.2500000  0.0000000  0.7500000  )
        31           O   tau(  31) = (  0.7500000  0.5000000  0.7500000  )
        32           O   tau(  32) = (  0.7500000  0.0000000  0.7500000  )
        33           O   tau(  33) = (  0.2500000  0.5000000  0.2500000  )
        34           O   tau(  34) = (  0.5000000  0.7500000  0.2500000  )
        35           O   tau(  35) = (  0.5000000  0.2500000  0.2500000  )
        36           O   tau(  36) = (  0.0000000  0.7500000  0.7500000  )
        37           O   tau(  37) = (  0.0000000  0.2500000  0.7500000  )
        38           O   tau(  38) = (  0.5000000  0.7500000  0.7500000  )
        39           O   tau(  39) = (  0.5000000  0.2500000  0.7500000  )
        40           O   tau(  40) = (  0.0000000  0.7500000  0.2500000  )

     number of k points=     1  Methfessel-Paxton smearing, width (Ry)=  0.0100
                       cart. coord. in units 2pi/alat
        k(    1) = (   0.0000000   0.0000000   0.0000000), wk =   1.0000000

                       cryst. coord.
        k(    1) = (   0.0000000   0.0000000   0.0000000), wk =   1.0000000

     Dense  grid:   448327 G-vectors     FFT dimensions: (  96,  96,  96)

     Smooth grid:   158619 G-vectors     FFT dimensions: (  72,  72,  72)

     Dynamical RAM for                 wfc:      17.75 MB

     Dynamical RAM for     wfc (w. buffer):      53.26 MB

     Dynamical RAM for           str. fact:       6.84 MB

     Dynamical RAM for           local pot:       0.00 MB

     Dynamical RAM for          nlocal pot:      45.33 MB

     Dynamical RAM for                qrad:       6.42 MB

     Dynamical RAM for          rho,v,vnew:      20.39 MB

     Dynamical RAM for               rhoin:       6.80 MB

     Dynamical RAM for            rho*nmix:      54.73 MB

     Dynamical RAM for           G-vectors:       6.72 MB

     Dynamical RAM for          h,s,v(r/c):       0.63 MB

     Dynamical RAM for          <psi|beta>:       2.15 MB

     Dynamical RAM for      wfcinit/wfcrot:      42.79 MB

     Dynamical RAM for           addusdens:     360.86 MB

     Estimated static dynamical RAM per process >     219.15 MB

     Estimated max dynamical RAM per process >     580.01 MB

     Estimated total dynamical RAM >       2.27 GB

     Check: negative core charge=   -0.000012
     Generating pointlists ...
     new r_m :   0.1031 (alat units)  1.5380 (a.u.) for type    1
     new r_m :   0.1458 (alat units)  2.1750 (a.u.) for type    2
     new r_m :   0.1031 (alat units)  1.5380 (a.u.) for type    3
     new r_m :   0.1031 (alat units)  1.5380 (a.u.) for type    4

     Initial potential from superposition of free atoms

     starting charge  375.99958, renormalised to  392.00000

     negative rho (up, down):  1.700E-01 1.700E-01
     Starting wfcs are  272 randomized atomic wfcs

     total cpu time spent up to now is       37.0 secs

     Self-consistent Calculation

     iteration #  1     ecut=    50.00 Ry     beta= 0.40
     CG style diagonalization
     ethr =  1.00E-02,  avg # of iterations =  2.4

     negative rho (up, down):  1.571E-01 1.571E-01

     total cpu time spent up to now is      140.4 secs

     total energy              =   -4250.38567833 Ry
     estimated scf accuracy    <      31.53416759 Ry

     total magnetization       =    -0.00 Bohr mag/cell
     absolute magnetization    =    40.02 Bohr mag/cell

     iteration #  2     ecut=    50.00 Ry     beta= 0.40
     CG style diagonalization
     ethr =  8.04E-03,  avg # of iterations =  3.4

     negative rho (up, down):  1.563E-01 1.563E-01

     total cpu time spent up to now is      267.7 secs

     total energy              =   -4256.68613152 Ry
     estimated scf accuracy    <       8.87398546 Ry

     total magnetization       =    -0.00 Bohr mag/cell
     absolute magnetization    =    36.42 Bohr mag/cell

     iteration #  3     ecut=    50.00 Ry     beta= 0.40
     CG style diagonalization
     ethr =  2.26E-03,  avg # of iterations =  3.2

     negative rho (up, down):  1.536E-01 1.536E-01

     total cpu time spent up to now is      388.6 secs

     total energy              =   -4259.19339659 Ry
     estimated scf accuracy    <       2.96193408 Ry

     total magnetization       =    -0.01 Bohr mag/cell
     absolute magnetization    =    35.89 Bohr mag/cell

     iteration #  4     ecut=    50.00 Ry     beta= 0.40
     CG style diagonalization
     ethr =  7.56E-04,  avg # of iterations =  3.2

     negative rho (up, down):  1.559E-01 1.559E-01

     total cpu time spent up to now is      508.4 secs

     total energy              =   -4259.56180481 Ry
     estimated scf accuracy    <       0.18123008 Ry

     total magnetization       =     0.17 Bohr mag/cell
     absolute magnetization    =    32.54 Bohr mag/cell

     iteration #  5     ecut=    50.00 Ry     beta= 0.40
     CG style diagonalization
     c_bands:  1 eigenvalues not converged
     ethr =  4.62E-05,  avg # of iterations =  3.9

     negative rho (up, down):  1.564E-01 1.563E-01

     total cpu time spent up to now is      650.5 secs

     total energy              =   -4259.59689512 Ry
     estimated scf accuracy    <       0.34109604 Ry

     total magnetization       =    -0.48 Bohr mag/cell
     absolute magnetization    =    31.58 Bohr mag/cell

     iteration #  6     ecut=    50.00 Ry     beta= 0.40
     CG style diagonalization
     c_bands:  1 eigenvalues not converged
     ethr =  4.62E-05,  avg # of iterations =  3.2

     negative rho (up, down):  1.565E-01 1.563E-01

     total cpu time spent up to now is      772.0 secs

     total energy              =   -4259.63894235 Ry
     estimated scf accuracy    <       0.06124242 Ry

     total magnetization       =     0.60 Bohr mag/cell
     absolute magnetization    =    31.09 Bohr mag/cell

     iteration #  7     ecut=    50.00 Ry     beta= 0.40
     CG style diagonalization
     ethr =  1.56E-05,  avg # of iterations =  3.1

     negative rho (up, down):  1.567E-01 1.564E-01

     total cpu time spent up to now is      889.3 secs

     total energy              =   -4259.64191302 Ry
     estimated scf accuracy    <       0.06456591 Ry

     total magnetization       =     0.25 Bohr mag/cell
     absolute magnetization    =    30.77 Bohr mag/cell

     iteration #  8     ecut=    50.00 Ry     beta= 0.40
     CG style diagonalization
     ethr =  1.56E-05,  avg # of iterations =  3.0

     negative rho (up, down):  1.567E-01 1.563E-01

     total cpu time spent up to now is     1003.6 secs

     total energy              =   -4259.64696197 Ry
     estimated scf accuracy    <       0.01540849 Ry

     total magnetization       =     0.19 Bohr mag/cell
     absolute magnetization    =    30.66 Bohr mag/cell

     iteration #  9     ecut=    50.00 Ry     beta= 0.40
     CG style diagonalization
     ethr =  3.93E-06,  avg # of iterations =  3.0

     negative rho (up, down):  1.568E-01 1.564E-01

     total cpu time spent up to now is     1119.0 secs

     total energy              =   -4259.64878595 Ry
     estimated scf accuracy    <       0.00302198 Ry

     total magnetization       =     0.24 Bohr mag/cell
     absolute magnetization    =    30.71 Bohr mag/cell

     iteration # 10     ecut=    50.00 Ry     beta= 0.40
     CG style diagonalization
     ethr =  7.71E-07,  avg # of iterations =  3.1

     negative rho (up, down):  1.569E-01 1.564E-01

     total cpu time spent up to now is     1237.0 secs

     total energy              =   -4259.64907774 Ry
     estimated scf accuracy    <       0.00169219 Ry

     total magnetization       =     0.25 Bohr mag/cell
     absolute magnetization    =    30.70 Bohr mag/cell

     iteration # 11     ecut=    50.00 Ry     beta= 0.40
     CG style diagonalization
     ethr =  4.32E-07,  avg # of iterations =  3.1

     negative rho (up, down):  1.570E-01 1.564E-01

     total cpu time spent up to now is     1353.1 secs

     total energy              =   -4259.64921115 Ry
     estimated scf accuracy    <       0.00051730 Ry

     total magnetization       =     0.29 Bohr mag/cell
     absolute magnetization    =    30.69 Bohr mag/cell

     iteration # 12     ecut=    50.00 Ry     beta= 0.40
     CG style diagonalization
     ethr =  1.32E-07,  avg # of iterations =  3.1

     negative rho (up, down):  1.571E-01 1.563E-01

     total cpu time spent up to now is     1470.6 secs

     total energy              =   -4259.64929610 Ry
     estimated scf accuracy    <       0.00002868 Ry

     total magnetization       =     0.35 Bohr mag/cell
     absolute magnetization    =    30.68 Bohr mag/cell

     iteration # 13     ecut=    50.00 Ry     beta= 0.40
     CG style diagonalization
     ethr =  7.32E-09,  avg # of iterations =  4.2

     negative rho (up, down):  1.571E-01 1.562E-01

     total cpu time spent up to now is     1620.7 secs

     total energy              =   -4259.64935712 Ry
     estimated scf accuracy    <       0.00002381 Ry

     total magnetization       =     0.44 Bohr mag/cell
     absolute magnetization    =    30.71 Bohr mag/cell

     iteration # 14     ecut=    50.00 Ry     beta= 0.40
     CG style diagonalization
     ethr =  6.07E-09,  avg # of iterations =  3.3

     negative rho (up, down):  1.573E-01 1.560E-01

     Magnetic moment per site:
     atom:    1    charge:   11.7989    magn:    0.0219    constr:    0.0000
     atom:    2    charge:   11.7990    magn:    0.0219    constr:    0.0000
     atom:    3    charge:   11.7990    magn:    0.0219    constr:    0.0000
     atom:    4    charge:   11.7990    magn:    0.0219    constr:    0.0000
     atom:    5    charge:   11.7989    magn:    0.0219    constr:    0.0000
     atom:    6    charge:   11.7990    magn:    0.0219    constr:    0.0000
     atom:    7    charge:   11.7990    magn:    0.0219    constr:    0.0000
     atom:    8    charge:   11.7990    magn:    0.0219    constr:    0.0000
     atom:    9    charge:   12.9994    magn:    3.2933    constr:    0.0000
     atom:   10    charge:   12.9994    magn:    3.2933    constr:    0.0000
     atom:   11    charge:   13.0006    magn:   -3.2839    constr:    0.0000
     atom:   12    charge:   13.0006    magn:   -3.2839    constr:    0.0000
     atom:   13    charge:   12.9994    magn:    3.2933    constr:    0.0000
     atom:   14    charge:   12.9994    magn:    3.2933    constr:    0.0000
     atom:   15    charge:   13.0006    magn:   -3.2839    constr:    0.0000
     atom:   16    charge:   13.0006    magn:   -3.2839    constr:    0.0000
     atom:   17    charge:    5.3629    magn:    0.0715    constr:    0.0000
     atom:   18    charge:    5.3619    magn:    0.0009    constr:    0.0000
     atom:   19    charge:    5.3619    magn:    0.0009    constr:    0.0000
     atom:   20    charge:    5.3629    magn:    0.0715    constr:    0.0000
     atom:   21    charge:    5.3631    magn:   -0.0673    constr:    0.0000
     atom:   22    charge:    5.3631    magn:   -0.0673    constr:    0.0000
     atom:   23    charge:    5.3625    magn:    0.0715    constr:    0.0000
     atom:   24    charge:    5.3625    magn:    0.0715    constr:    0.0000
     atom:   25    charge:    5.3631    magn:   -0.0673    constr:    0.0000
     atom:   26    charge:    5.3631    magn:   -0.0673    constr:    0.0000
     atom:   27    charge:    5.3622    magn:    0.0009    constr:    0.0000
     atom:   28    charge:    5.3619    magn:    0.0009    constr:    0.0000
     atom:   29    charge:    5.3622    magn:    0.0009    constr:    0.0000
     atom:   30    charge:    5.3619    magn:    0.0009    constr:    0.0000
     atom:   31    charge:    5.3622    magn:    0.0009    constr:    0.0000
     atom:   32    charge:    5.3619    magn:    0.0009    constr:    0.0000
     atom:   33    charge:    5.3622    magn:    0.0009    constr:    0.0000
     atom:   34    charge:    5.3622    magn:    0.0009    constr:    0.0000
     atom:   35    charge:    5.3622    magn:    0.0009    constr:    0.0000
     atom:   36    charge:    5.3619    magn:    0.0009    constr:    0.0000
     atom:   37    charge:    5.3619    magn:    0.0009    constr:    0.0000
     atom:   38    charge:    5.3622    magn:    0.0009    constr:    0.0000
     atom:   39    charge:    5.3622    magn:    0.0009    constr:    0.0000
     atom:   40    charge:    5.3619    magn:    0.0009    constr:    0.0000

     total cpu time spent up to now is     1743.0 secs

     End of self-consistent calculation

 ------ SPIN UP ------------


          k = 0.0000 0.0000 0.0000 ( 19837 PWs)   bands (ev):

   -78.5821 -78.5821 -78.5820 -78.5820 -74.1666 -74.1666 -74.1665 -74.1665
   -44.7138 -44.7138 -44.7129 -44.7129 -44.4808 -44.4808 -44.4808 -44.4808
   -44.4807 -44.4807 -44.4807 -44.4807 -40.4699 -40.4699 -40.4682 -40.4682
   -40.1658 -40.1658 -40.1658 -40.1658 -40.1656 -40.1656 -40.1656 -40.1656
   -11.6414 -11.6348 -11.6302 -11.6301 -11.6122 -11.6122 -11.6049 -11.6049
   -11.6000 -11.5976 -11.5959 -11.5959 -11.5947 -11.5946 -11.5944 -11.5944
   -11.5929 -11.5815 -11.5801 -11.5713 -11.5696 -11.5688 -11.5688 -11.5622
   -11.5611 -11.5610 -11.5608 -11.5606 -11.5602 -11.5599 -11.5596 -11.5586
   -11.5525 -11.5466 -11.5463 -11.5460 -11.5441 -11.5288 -11.5287 -11.5212
    -7.0907  -6.4199  -6.3277  -6.2899  -5.8108  -5.7885  -5.7038  -5.6497
    -5.6497  -5.6277  -5.6249  -5.5695  -5.4810  -5.4810  -5.4795  -5.4795
    -5.4622  -5.3176  -5.3176  -5.2904  -5.2669  -5.2156  -5.1796  -5.1719
     0.9078   0.9079   0.9287   1.2984   1.3114   1.3114   1.9708   2.1013
     5.1067   5.2271   5.2271   5.3504   5.3564   5.4826   5.5164   5.6453
     5.7953   6.1699   6.2308   6.3042   6.3162   6.4842   6.5433   6.5433
     6.6972   6.7021   6.9139   7.1070   7.1070   7.1133   7.1133   7.2208
     7.3269   7.3269   7.3885   7.3885   7.5169   7.5540   7.5845   7.6486
     7.6486   7.6497   7.6497   7.6995   7.6996   7.7045   7.7177   7.7755
     7.7756   7.9863   8.1784   8.3752   8.3752   8.5529   8.5530   8.6132
     8.7789   9.2039   9.2039   9.3705   9.3706   9.4000   9.5496   9.5496
     9.6853   9.7411   9.7411   9.7417   9.7501   9.7676   9.7676   9.7740
     9.8973  10.0167  10.0168  10.1254  10.1278  10.1278  10.1401  10.2120
    10.2290  10.2291  10.3403  10.3404  10.3512  10.5326  10.5327  10.6154
    10.8359  10.8359  10.8766  10.8767  10.9265  10.9526  10.9540  10.9561
    10.9945  11.0972  12.0654  12.1611  12.2066  12.2251  12.5066  12.5066
    12.5659  12.5659  12.6004  12.7417  12.9437  12.9437  12.9616  13.0510
    13.1318  13.1932  13.2378  13.2378  13.5084  13.8188  13.8606  13.9024
    14.2345  14.7452  14.7452  14.7586  14.7961  14.8480  14.8480  14.9971
    15.3136  15.3187  15.3198  15.3632  15.3906  15.3906  16.2507  16.3345
    16.5040  16.5040  16.5674

     occupation numbers 
     1.0000   1.0000   1.0000   1.0000   1.0000   1.0000   1.0000   1.0000
     1.0000   1.0000   1.0000   1.0000   1.0000   1.0000   1.0000   1.0000
     1.0000   1.0000   1.0000   1.0000   1.0000   1.0000   1.0000   1.0000
     1.0000   1.0000   1.0000   1.0000   1.0000   1.0000   1.0000   1.0000
     1.0000   1.0000   1.0000   1.0000   1.0000   1.0000   1.0000   1.0000
     1.0000   1.0000   1.0000   1.0000   1.0000   1.0000   1.0000   1.0000
     1.0000   1.0000   1.0000   1.0000   1.0000   1.0000   1.0000   1.0000
     1.0000   1.0000   1.0000   1.0000   1.0000   1.0000   1.0000   1.0000
     1.0000   1.0000   1.0000   1.0000   1.0000   1.0000   1.0000   1.0000
     1.0000   1.0000   1.0000   1.0000   1.0000   1.0000   1.0000   1.0000
     1.0000   1.0000   1.0000   1.0000   1.0000   1.0000   1.0000   1.0000
     1.0000   1.0000   1.0000   1.0000   1.0000   1.0000   1.0000   1.0000
     1.0000   1.0000   1.0000   1.0000   1.0000   1.0000   1.0000   1.0000
     1.0000   1.0000   1.0000   1.0000   1.0000   1.0000   1.0000   1.0000
     1.0000   1.0000   1.0000   1.0000   1.0000   1.0000   1.0000   1.0000
     1.0000   1.0000   1.0000   1.0000   1.0000   1.0000   1.0000   1.0000
     1.0000   1.0000   1.0000   1.0000   1.0000   1.0000   1.0000   1.0000
     1.0000   1.0000   1.0000   1.0000   1.0000   1.0000   1.0000   1.0000
     1.0000   1.0000   1.0000   1.0000   1.0000   1.0000   1.0000   1.0000
     1.0000   1.0000   1.0000   1.0000   1.0000   1.0000   1.0000   1.0000
     1.0000   1.0000   1.0000   1.0000   1.0000   1.0000   1.0000   1.0000
     1.0000   1.0000   1.0000   1.0000   1.0000   1.0000   1.0000   1.0000
     1.0000   1.0000   1.0000   1.0000   1.0000   1.0000   1.0000   1.0000
     1.0000   1.0000   1.0000   1.0000   1.0000   1.0000   1.0000   1.0000
     1.0000   1.0000   1.0059   0.6388   0.3600   0.2557  -0.0020  -0.0020
    -0.0003  -0.0003  -0.0001  -0.0000  -0.0000  -0.0000  -0.0000  -0.0000
    -0.0000  -0.0000  -0.0000  -0.0000  -0.0000  -0.0000  -0.0000  -0.0000
    -0.0000  -0.0000  -0.0000  -0.0000  -0.0000  -0.0000  -0.0000  -0.0000
    -0.0000  -0.0000  -0.0000  -0.0000  -0.0000  -0.0000  -0.0000  -0.0000
    -0.0000  -0.0000  -0.0000

 ------ SPIN DOWN ----------


          k = 0.0000 0.0000 0.0000 ( 19837 PWs)   bands (ev):

   -78.5697 -78.5697 -78.5697 -78.5697 -74.1670 -74.1670 -74.1669 -74.1669
   -44.7040 -44.7039 -44.7031 -44.7031 -44.4679 -44.4679 -44.4679 -44.4679
   -44.4678 -44.4678 -44.4678 -44.4678 -40.4648 -40.4648 -40.4631 -40.4631
   -40.1688 -40.1688 -40.1688 -40.1688 -40.1686 -40.1686 -40.1686 -40.1686
   -11.6321 -11.6282 -11.6232 -11.6208 -11.6040 -11.6040 -11.5981 -11.5963
   -11.5963 -11.5904 -11.5902 -11.5899 -11.5893 -11.5893 -11.5876 -11.5875
   -11.5875 -11.5759 -11.5734 -11.5630 -11.5630 -11.5624 -11.5608 -11.5604
   -11.5591 -11.5563 -11.5563 -11.5557 -11.5557 -11.5551 -11.5523 -11.5511
   -11.5475 -11.5447 -11.5406 -11.5406 -11.5366 -11.5237 -11.5237 -11.5164
    -7.0860  -6.4208  -6.3195  -6.2882  -5.8081  -5.7858  -5.7070  -5.6467
    -5.6467  -5.6264  -5.6232  -5.5567  -5.4790  -5.4790  -5.4779  -5.4779
    -5.4550  -5.3162  -5.3162  -5.2910  -5.2621  -5.2091  -5.1779  -5.1702
     0.9342   0.9342   0.9507   1.3246   1.3356   1.3356   1.9972   2.1272
     5.1086   5.2415   5.2415   5.3522   5.3610   5.4882   5.5236   5.6497
     5.8023   6.1745   6.2351   6.3112   6.3232   6.4901   6.5499   6.5500
     6.7074   6.7128   6.9212   7.1114   7.1115   7.1187   7.1187   7.2273
     7.3381   7.3381   7.3934   7.3934   7.5161   7.5630   7.5947   7.6530
     7.6530   7.6680   7.6680   7.7017   7.7019   7.7211   7.7365   7.7800
     7.7800   7.9918   8.1843   8.3781   8.3781   8.5609   8.5609   8.6140
     8.7884   9.2097   9.2097   9.3744   9.3744   9.4058   9.5531   9.5531
     9.6906   9.7440   9.7441   9.7518   9.7596   9.7755   9.7767   9.7767
     9.9027  10.0218  10.0219  10.1303  10.1304  10.1305  10.1405  10.2207
    10.2308  10.2309  10.3454  10.3454  10.3532  10.5344  10.5344  10.6202
    10.8375  10.8375  10.8791  10.8792  10.9276  10.9551  10.9600  10.9635
    11.0066  11.1074  12.0761  12.2048  12.2114  12.2724  12.5062  12.5062
    12.5653  12.5653  12.5975  12.7498  12.9472  12.9472  12.9592  13.0584
    13.1290  13.1898  13.2390  13.2390  13.5186  13.8531  13.9031  13.9189
    14.2366  14.7757  14.7758  14.7873  14.8302  14.8572  14.8572  14.9995
    15.3438  15.3506  15.3522  15.4012  15.4034  15.4035  16.2802  16.3431
    16.5365  16.5365  16.5787

     occupation numbers 
     1.0000   1.0000   1.0000   1.0000   1.0000   1.0000   1.0000   1.0000
     1.0000   1.0000   1.0000   1.0000   1.0000   1.0000   1.0000   1.0000
     1.0000   1.0000   1.0000   1.0000   1.0000   1.0000   1.0000   1.0000
     1.0000   1.0000   1.0000   1.0000   1.0000   1.0000   1.0000   1.0000
     1.0000   1.0000   1.0000   1.0000   1.0000   1.0000   1.0000   1.0000
     1.0000   1.0000   1.0000   1.0000   1.0000   1.0000   1.0000   1.0000
     1.0000   1.0000   1.0000   1.0000   1.0000   1.0000   1.0000   1.0000
     1.0000   1.0000   1.0000   1.0000   1.0000   1.0000   1.0000   1.0000
     1.0000   1.0000   1.0000   1.0000   1.0000   1.0000   1.0000   1.0000
     1.0000   1.0000   1.0000   1.0000   1.0000   1.0000   1.0000   1.0000
     1.0000   1.0000   1.0000   1.0000   1.0000   1.0000   1.0000   1.0000
     1.0000   1.0000   1.0000   1.0000   1.0000   1.0000   1.0000   1.0000
     1.0000   1.0000   1.0000   1.0000   1.0000   1.0000   1.0000   1.0000
     1.0000   1.0000   1.0000   1.0000   1.0000   1.0000   1.0000   1.0000
     1.0000   1.0000   1.0000   1.0000   1.0000   1.0000   1.0000   1.0000
     1.0000   1.0000   1.0000   1.0000   1.0000   1.0000   1.0000   1.0000
     1.0000   1.0000   1.0000   1.0000   1.0000   1.0000   1.0000   1.0000
     1.0000   1.0000   1.0000   1.0000   1.0000   1.0000   1.0000   1.0000
     1.0000   1.0000   1.0000   1.0000   1.0000   1.0000   1.0000   1.0000
     1.0000   1.0000   1.0000   1.0000   1.0000   1.0000   1.0000   1.0000
     1.0000   1.0000   1.0000   1.0000   1.0000   1.0000   1.0000   1.0000
     1.0000   1.0000   1.0000   1.0000   1.0000   1.0000   1.0000   1.0000
     1.0000   1.0000   1.0000   1.0000   1.0000   1.0000   1.0000   1.0000
     1.0000   1.0000   1.0000   1.0000   1.0000   1.0000   1.0000   1.0000
     1.0000   1.0000   0.9878   0.3709   0.3320   0.0581  -0.0020  -0.0020
    -0.0003  -0.0003  -0.0001  -0.0000  -0.0000  -0.0000  -0.0000  -0.0000
    -0.0000  -0.0000  -0.0000  -0.0000  -0.0000  -0.0000  -0.0000  -0.0000
    -0.0000  -0.0000  -0.0000  -0.0000  -0.0000  -0.0000  -0.0000  -0.0000
    -0.0000  -0.0000  -0.0000  -0.0000  -0.0000  -0.0000  -0.0000  -0.0000
    -0.0000  -0.0000  -0.0000

     the Fermi energy is    12.1838 ev

!    total energy              =   -4259.64941747 Ry
     estimated scf accuracy    <       0.00000864 Ry
     smearing contrib. (-TS)   =      -0.00555546 Ry
     internal energy E=F+TS    =   -4259.64386201 Ry

     The total energy is F=E-TS. E is the sum of the following terms:
     one-electron contribution =   -1694.14445824 Ry
     hartree contribution      =    1096.81293635 Ry
     xc contribution           =    -924.70856562 Ry
     ewald contribution        =   -2737.60377451 Ry

     total magnetization       =     0.51 Bohr mag/cell
     absolute magnetization    =    30.74 Bohr mag/cell

     convergence has been achieved in  14 iterations

     Writing output data file /home/aldair1809/Documentos/QE/4BFO/temp/bifeo3.save/

     init_run     :     34.97s CPU     36.60s WALL (       1 calls)
     electrons    :   1660.52s CPU   1706.09s WALL (       1 calls)

     Called by init_run:
     wfcinit      :     26.86s CPU     27.09s WALL (       1 calls)
     wfcinit:atom :      0.04s CPU      0.04s WALL (       2 calls)
     wfcinit:wfcr :     26.58s CPU     26.78s WALL (       2 calls)
     potinit      :      0.82s CPU      0.93s WALL (       1 calls)
     hinit0       :      0.83s CPU      0.86s WALL (       1 calls)

     Called by electrons:
     c_bands      :   1269.87s CPU   1278.00s WALL (      14 calls)
     sum_band     :    291.26s CPU    310.96s WALL (      14 calls)
     v_of_rho     :      9.44s CPU     10.22s WALL (      15 calls)
     v_h          :      0.41s CPU      0.43s WALL (      15 calls)
     v_xc         :      9.03s CPU      9.78s WALL (      15 calls)
     newd         :     93.53s CPU    111.64s WALL (      15 calls)
     mix_rho      :      2.06s CPU      2.14s WALL (      14 calls)

     Called by c_bands:
     init_us_2    :      1.64s CPU      1.68s WALL (      58 calls)
     ccgdiagg     :    973.59s CPU    980.10s WALL (      28 calls)
     wfcrot       :    321.46s CPU    323.28s WALL (      28 calls)

     Called by sum_band:
     sum_band:wei :      0.01s CPU      0.01s WALL (      14 calls)
     sum_band:loo :     88.38s CPU     89.22s WALL (      14 calls)
     sum_band:buf :      0.30s CPU      0.30s WALL (      28 calls)
     sum_band:ini :      0.78s CPU      0.78s WALL (      28 calls)
     sum_band:cal :     64.14s CPU     64.28s WALL (      28 calls)
     sum_band:bec :      0.22s CPU      0.22s WALL (      28 calls)
     addusdens    :    199.65s CPU    218.39s WALL (      14 calls)
     addusd:skk   :      0.37s CPU      0.90s WALL (      56 calls)
     addusd:dgemm :    132.69s CPU    147.19s WALL (     112 calls)
     addusd:qvan2 :     65.86s CPU     65.88s WALL (     112 calls)

     Called by *cgdiagg:
     h_psi        :    588.93s CPU    595.58s WALL (   15223 calls)
     s_psi        :    380.89s CPU    381.43s WALL (   30418 calls)

     Called by h_psi:
     h_psi:calbec :    222.45s CPU    223.81s WALL (   15223 calls)
     vloc_psi     :    139.55s CPU    144.60s WALL (   15223 calls)
     add_vuspsi   :    226.15s CPU    226.42s WALL (   15223 calls)
     hs_1psi      :    567.24s CPU    572.50s WALL (   15195 calls)
     s_1psi       :    310.35s CPU    311.19s WALL (   15195 calls)

     General routines
     calbec       :    441.00s CPU    443.20s WALL (   30446 calls)
     fft          :      8.14s CPU      8.55s WALL (     369 calls)
     ffts         :      0.35s CPU      0.38s WALL (      58 calls)
     fftw         :    137.22s CPU    142.39s WALL (   50278 calls)
     interpolate  :      0.97s CPU      1.01s WALL (      30 calls)

     Parallel routines
     fft_scatt_xy :     29.67s CPU     30.83s WALL (   50705 calls)
     fft_scatt_yz :     21.99s CPU     24.67s WALL (   50705 calls)

     PWSCF        :  28m15.99s CPU  29m 3.56s WALL


   This run was terminated on:  15: 9:22  24Oct2024            

=------------------------------------------------------------------------------=
   JOB DONE.
=------------------------------------------------------------------------------=
