
     Program PWSCF v.6.7MaX starts on 24Oct2024 at 13: 6: 1 

     This program is part of the open-source Quantum ESPRESSO suite
     for quantum simulation of materials; please cite
         "P. Giannozzi et al., J. Phys.:Condens. Matter 21 395502 (2009);
         "P. Giannozzi et al., J. Phys.:Condens. Matter 29 465901 (2017);
          URL http://www.quantum-espresso.org", 
     in publications or presentations arising from this work. More details at
     http://www.quantum-espresso.org/quote

     Parallel version (MPI), running on     4 processors

     MPI processes distributed on     1 nodes
     R & G space division:  proc/nbgrp/npool/nimage =       4
     Waiting for input...
     Reading input from standard input

     Current dimensions of program PWSCF are:
     Max number of different atomic species (ntypx) = 10
     Max number of k-points (npk) =  40000
     Max angular momentum in pseudopotentials (lmaxx) =  3
     Message from routine iosys:
     wrong startingpot: use default (1)

     Subspace diagonalization in iterative solution of the eigenvalue problem:
     one sub-group per band group will be used
     scalapack distributed-memory algorithm (size of sub-group:  2*  2 procs)

     Found symmetry operation: I + ( -0.5000 -0.5000  0.0000)
     This is a supercell, fractional translations are disabled

     Parallelization info
     --------------------
     sticks:   dense  smooth     PW     G-vecs:    dense   smooth      PW
     Min         708     355     87                28342    10024    1235
     Max         710     357     88                28343    10025    1238
     Sum        2837    1425    349               113369    40099    4945



     bravais-lattice index     =            1
     lattice parameter (alat)  =      14.9137  a.u.
     unit-cell volume          =    3317.0944 (a.u.)^3
     number of atoms/cell      =           40
     number of atomic types    =            4
     number of electrons       =       392.00
     number of Kohn-Sham states=          235
     kinetic-energy cutoff     =      20.0000  Ry
     charge density cutoff     =     160.0000  Ry
     scf convergence threshold =      1.0E-05
     mixing beta               =       0.4000
     number of iterations used =            8  plain     mixing
     Exchange-correlation=  SLA  PW   PBX  PBC
                           (   1   4   3   4   0   0   0)

     celldm(1)=  14.913719  celldm(2)=   0.000000  celldm(3)=   0.000000
     celldm(4)=   0.000000  celldm(5)=   0.000000  celldm(6)=   0.000000

     crystal axes: (cart. coord. in units of alat)
               a(1) = (   1.000000   0.000000   0.000000 )  
               a(2) = (   0.000000   1.000000   0.000000 )  
               a(3) = (   0.000000   0.000000   1.000000 )  

     reciprocal axes: (cart. coord. in units 2 pi/alat)
               b(1) = (  1.000000  0.000000  0.000000 )  
               b(2) = (  0.000000  1.000000  0.000000 )  
               b(3) = (  0.000000  0.000000  1.000000 )  


     PseudoPot. # 1 for O  read from file:
     /home/aldair1809/Programas/QE/q-e-qe-7.3/pseudo/o_pbe_v1.2.uspp.F.UPF
     MD5 check sum: 734c27235a0248c51dbae37a1fbe46ec
     Pseudo is Ultrasoft + core correction, Zval =  6.0
     Generated by new atomic code, or converted to UPF format
     Using radial grid of  737 points,  5 beta functions with: 
                l(1) =   0
                l(2) =   0
                l(3) =   1
                l(4) =   1
                l(5) =   2
     Q(r) pseudized with  8 coefficients,  rinner =    0.900   0.900   0.900
                                                       0.900   0.900

     PseudoPot. # 2 for Bi read from file:
     /home/aldair1809/Programas/QE/q-e-qe-7.3/pseudo/bi_pbe_v1.uspp.F.UPF
     MD5 check sum: cceb9f28ec65b6d7ff33140f5b0b1758
     Pseudo is Ultrasoft + core correction, Zval = 15.0
     Generated by new atomic code, or converted to UPF format
     Using radial grid of  899 points,  6 beta functions with: 
                l(1) =   0
                l(2) =   0
                l(3) =   1
                l(4) =   1
                l(5) =   2
                l(6) =   2
     Q(r) pseudized with  6 coefficients,  rinner =    1.000   1.000   1.000
                                                       1.000   1.000

     PseudoPot. # 3 for Fe read from file:
     /home/aldair1809/Programas/QE/q-e-qe-7.3/pseudo/fe_pbe_v1.5.uspp.F.UPF
     MD5 check sum: a130daea23fe5165f5d574ae7f82ed95
     Pseudo is Ultrasoft + core correction, Zval = 16.0
     Generated by new atomic code, or converted to UPF format
     Using radial grid of  861 points,  6 beta functions with: 
                l(1) =   0
                l(2) =   0
                l(3) =   1
                l(4) =   1
                l(5) =   2
                l(6) =   2
     Q(r) pseudized with  8 coefficients,  rinner =    1.000   1.000   1.000
                                                       1.000   1.000

     PseudoPot. # 4 for Fe read from file:
     /home/aldair1809/Programas/QE/q-e-qe-7.3/pseudo/fe_pbe_v1.5.uspp.F.UPF
     MD5 check sum: a130daea23fe5165f5d574ae7f82ed95
     Pseudo is Ultrasoft + core correction, Zval = 16.0
     Generated by new atomic code, or converted to UPF format
     Using radial grid of  861 points,  6 beta functions with: 
                l(1) =   0
                l(2) =   0
                l(3) =   1
                l(4) =   1
                l(5) =   2
                l(6) =   2
     Q(r) pseudized with  8 coefficients,  rinner =    1.000   1.000   1.000
                                                       1.000   1.000

     atomic species   valence    mass     pseudopotential
        O              6.00    15.99940     O ( 1.00)
        Bi            15.00   208.98040     Bi( 1.00)
        Fe1           16.00    55.84500     Fe( 1.00)
        Fe2           16.00    55.84500     Fe( 1.00)

     Starting magnetic structure 
     atomic species   magnetization
        O            0.000
        Bi           0.000
        Fe1         -0.800
        Fe2          0.800

      8 Sym. Ops., with inversion, found


                                    s                        frac. trans.

      isym =  1     identity                                     

 cryst.   s( 1) = (     1          0          0      )
                  (     0          1          0      )
                  (     0          0          1      )

 cart.    s( 1) = (  1.0000000  0.0000000  0.0000000 )
                  (  0.0000000  1.0000000  0.0000000 )
                  (  0.0000000  0.0000000  1.0000000 )


      isym =  2     180 deg rotation - cart. axis [0,0,1]        

 cryst.   s( 2) = (    -1          0          0      )
                  (     0         -1          0      )
                  (     0          0          1      )

 cart.    s( 2) = ( -1.0000000  0.0000000  0.0000000 )
                  (  0.0000000 -1.0000000  0.0000000 )
                  (  0.0000000  0.0000000  1.0000000 )


      isym =  3     180 deg rotation - cart. axis [1,1,0]        

 cryst.   s( 3) = (     0          1          0      )
                  (     1          0          0      )
                  (     0          0         -1      )

 cart.    s( 3) = (  0.0000000  1.0000000  0.0000000 )
                  (  1.0000000  0.0000000  0.0000000 )
                  (  0.0000000  0.0000000 -1.0000000 )


      isym =  4     180 deg rotation - cart. axis [1,-1,0]       

 cryst.   s( 4) = (     0         -1          0      )
                  (    -1          0          0      )
                  (     0          0         -1      )

 cart.    s( 4) = (  0.0000000 -1.0000000  0.0000000 )
                  ( -1.0000000  0.0000000  0.0000000 )
                  (  0.0000000  0.0000000 -1.0000000 )


      isym =  5     inversion                                    

 cryst.   s( 5) = (    -1          0          0      )
                  (     0         -1          0      )
                  (     0          0         -1      )

 cart.    s( 5) = ( -1.0000000  0.0000000  0.0000000 )
                  (  0.0000000 -1.0000000  0.0000000 )
                  (  0.0000000  0.0000000 -1.0000000 )


      isym =  6     inv. 180 deg rotation - cart. axis [0,0,1]   

 cryst.   s( 6) = (     1          0          0      )
                  (     0          1          0      )
                  (     0          0         -1      )

 cart.    s( 6) = (  1.0000000  0.0000000  0.0000000 )
                  (  0.0000000  1.0000000  0.0000000 )
                  (  0.0000000  0.0000000 -1.0000000 )


      isym =  7     inv. 180 deg rotation - cart. axis [1,1,0]   

 cryst.   s( 7) = (     0         -1          0      )
                  (    -1          0          0      )
                  (     0          0          1      )

 cart.    s( 7) = (  0.0000000 -1.0000000  0.0000000 )
                  ( -1.0000000  0.0000000  0.0000000 )
                  (  0.0000000  0.0000000  1.0000000 )


      isym =  8     inv. 180 deg rotation - cart. axis [1,-1,0]  

 cryst.   s( 8) = (     0          1          0      )
                  (     1          0          0      )
                  (     0          0          1      )

 cart.    s( 8) = (  0.0000000  1.0000000  0.0000000 )
                  (  1.0000000  0.0000000  0.0000000 )
                  (  0.0000000  0.0000000  1.0000000 )


     point group D_2h (mmm) 
     there are  8 classes
     the character table:

       E     C2    C2'   C2''  i     s_v   s_v'  s_v''
A_g    1.00  1.00  1.00  1.00  1.00  1.00  1.00  1.00
B_1g   1.00  1.00 -1.00 -1.00  1.00  1.00 -1.00 -1.00
B_2g   1.00 -1.00  1.00 -1.00  1.00 -1.00  1.00 -1.00
B_3g   1.00 -1.00 -1.00  1.00  1.00 -1.00 -1.00  1.00
A_u    1.00  1.00  1.00  1.00 -1.00 -1.00 -1.00 -1.00
B_1u   1.00  1.00 -1.00 -1.00 -1.00 -1.00  1.00  1.00
B_2u   1.00 -1.00  1.00 -1.00 -1.00  1.00 -1.00  1.00
B_3u   1.00 -1.00 -1.00  1.00 -1.00  1.00  1.00 -1.00

     the symmetry operations in each class and the name of the first element:

     E        1
          identity                                               
     C2       2
          180 deg rotation - cart. axis [0,0,1]                  
     C2'      4
          180 deg rotation - cart. axis [1,-1,0]                 
     C2''     3
          180 deg rotation - cart. axis [1,1,0]                  
     i        5
          inversion                                              
     s_v      6
          inv. 180 deg rotation - cart. axis [0,0,1]             
     s_v'     8
          inv. 180 deg rotation - cart. axis [1,-1,0]            
     s_v''    7
          inv. 180 deg rotation - cart. axis [1,1,0]             

   Cartesian axes

     site n.     atom                  positions (alat units)
         1           Bi  tau(   1) = (   0.0000000   0.0000000   0.0000000  )
         2           Bi  tau(   2) = (   0.5000000   0.5000000   0.0000000  )
         3           Bi  tau(   3) = (   0.5000000   0.0000000   0.0000000  )
         4           Bi  tau(   4) = (   0.0000000   0.5000000   0.5000000  )
         5           Bi  tau(   5) = (   0.0000000   0.0000000   0.5000000  )
         6           Bi  tau(   6) = (   0.5000000   0.5000000   0.5000000  )
         7           Bi  tau(   7) = (   0.5000000   0.0000000   0.5000000  )
         8           Bi  tau(   8) = (   0.0000000   0.5000000   0.0000000  )
         9           Fe2 tau(   9) = (   0.2500000   0.2500000   0.2500000  )
        10           Fe2 tau(  10) = (   0.7500000   0.7500000   0.2500000  )
        11           Fe1 tau(  11) = (   0.7500000   0.2500000   0.2500000  )
        12           Fe1 tau(  12) = (   0.2500000   0.7500000   0.7500000  )
        13           Fe2 tau(  13) = (   0.2500000   0.2500000   0.7500000  )
        14           Fe2 tau(  14) = (   0.7500000   0.7500000   0.7500000  )
        15           Fe1 tau(  15) = (   0.7500000   0.2500000   0.7500000  )
        16           Fe1 tau(  16) = (   0.2500000   0.7500000   0.2500000  )
        17           O   tau(  17) = (   0.2500000   0.2500000   0.0000000  )
        18           O   tau(  18) = (   0.2500000   0.0000000   0.2500000  )
        19           O   tau(  19) = (   0.0000000   0.2500000   0.2500000  )
        20           O   tau(  20) = (   0.7500000   0.7500000   0.0000000  )
        21           O   tau(  21) = (   0.7500000   0.2500000   0.0000000  )
        22           O   tau(  22) = (   0.2500000   0.7500000   0.5000000  )
        23           O   tau(  23) = (   0.2500000   0.2500000   0.5000000  )
        24           O   tau(  24) = (   0.7500000   0.7500000   0.5000000  )
        25           O   tau(  25) = (   0.7500000   0.2500000   0.5000000  )
        26           O   tau(  26) = (   0.2500000   0.7500000   0.0000000  )
        27           O   tau(  27) = (   0.7500000   0.5000000   0.2500000  )
        28           O   tau(  28) = (   0.7500000   0.0000000   0.2500000  )
        29           O   tau(  29) = (   0.2500000   0.5000000   0.7500000  )
        30           O   tau(  30) = (   0.2500000   0.0000000   0.7500000  )
        31           O   tau(  31) = (   0.7500000   0.5000000   0.7500000  )
        32           O   tau(  32) = (   0.7500000   0.0000000   0.7500000  )
        33           O   tau(  33) = (   0.2500000   0.5000000   0.2500000  )
        34           O   tau(  34) = (   0.5000000   0.7500000   0.2500000  )
        35           O   tau(  35) = (   0.5000000   0.2500000   0.2500000  )
        36           O   tau(  36) = (   0.0000000   0.7500000   0.7500000  )
        37           O   tau(  37) = (   0.0000000   0.2500000   0.7500000  )
        38           O   tau(  38) = (   0.5000000   0.7500000   0.7500000  )
        39           O   tau(  39) = (   0.5000000   0.2500000   0.7500000  )
        40           O   tau(  40) = (   0.0000000   0.7500000   0.2500000  )

   Crystallographic axes

     site n.     atom                  positions (cryst. coord.)
         1           Bi  tau(   1) = (  0.0000000  0.0000000  0.0000000  )
         2           Bi  tau(   2) = (  0.5000000  0.5000000  0.0000000  )
         3           Bi  tau(   3) = (  0.5000000  0.0000000  0.0000000  )
         4           Bi  tau(   4) = (  0.0000000  0.5000000  0.5000000  )
         5           Bi  tau(   5) = (  0.0000000  0.0000000  0.5000000  )
         6           Bi  tau(   6) = (  0.5000000  0.5000000  0.5000000  )
         7           Bi  tau(   7) = (  0.5000000  0.0000000  0.5000000  )
         8           Bi  tau(   8) = (  0.0000000  0.5000000  0.0000000  )
         9           Fe2 tau(   9) = (  0.2500000  0.2500000  0.2500000  )
        10           Fe2 tau(  10) = (  0.7500000  0.7500000  0.2500000  )
        11           Fe1 tau(  11) = (  0.7500000  0.2500000  0.2500000  )
        12           Fe1 tau(  12) = (  0.2500000  0.7500000  0.7500000  )
        13           Fe2 tau(  13) = (  0.2500000  0.2500000  0.7500000  )
        14           Fe2 tau(  14) = (  0.7500000  0.7500000  0.7500000  )
        15           Fe1 tau(  15) = (  0.7500000  0.2500000  0.7500000  )
        16           Fe1 tau(  16) = (  0.2500000  0.7500000  0.2500000  )
        17           O   tau(  17) = (  0.2500000  0.2500000  0.0000000  )
        18           O   tau(  18) = (  0.2500000  0.0000000  0.2500000  )
        19           O   tau(  19) = (  0.0000000  0.2500000  0.2500000  )
        20           O   tau(  20) = (  0.7500000  0.7500000  0.0000000  )
        21           O   tau(  21) = (  0.7500000  0.2500000  0.0000000  )
        22           O   tau(  22) = (  0.2500000  0.7500000  0.5000000  )
        23           O   tau(  23) = (  0.2500000  0.2500000  0.5000000  )
        24           O   tau(  24) = (  0.7500000  0.7500000  0.5000000  )
        25           O   tau(  25) = (  0.7500000  0.2500000  0.5000000  )
        26           O   tau(  26) = (  0.2500000  0.7500000  0.0000000  )
        27           O   tau(  27) = (  0.7500000  0.5000000  0.2500000  )
        28           O   tau(  28) = (  0.7500000  0.0000000  0.2500000  )
        29           O   tau(  29) = (  0.2500000  0.5000000  0.7500000  )
        30           O   tau(  30) = (  0.2500000  0.0000000  0.7500000  )
        31           O   tau(  31) = (  0.7500000  0.5000000  0.7500000  )
        32           O   tau(  32) = (  0.7500000  0.0000000  0.7500000  )
        33           O   tau(  33) = (  0.2500000  0.5000000  0.2500000  )
        34           O   tau(  34) = (  0.5000000  0.7500000  0.2500000  )
        35           O   tau(  35) = (  0.5000000  0.2500000  0.2500000  )
        36           O   tau(  36) = (  0.0000000  0.7500000  0.7500000  )
        37           O   tau(  37) = (  0.0000000  0.2500000  0.7500000  )
        38           O   tau(  38) = (  0.5000000  0.7500000  0.7500000  )
        39           O   tau(  39) = (  0.5000000  0.2500000  0.7500000  )
        40           O   tau(  40) = (  0.0000000  0.7500000  0.2500000  )

     number of k points=     1  Methfessel-Paxton smearing, width (Ry)=  0.0100
                       cart. coord. in units 2pi/alat
        k(    1) = (   0.0000000   0.0000000   0.0000000), wk =   1.0000000

                       cryst. coord.
        k(    1) = (   0.0000000   0.0000000   0.0000000), wk =   1.0000000

     Dense  grid:   113369 G-vectors     FFT dimensions: (  64,  64,  64)

     Smooth grid:    40099 G-vectors     FFT dimensions: (  45,  45,  45)

     Dynamical RAM for                 wfc:       4.49 MB

     Dynamical RAM for     wfc (w. buffer):      13.47 MB

     Dynamical RAM for           str. fact:       1.73 MB

     Dynamical RAM for           local pot:       0.00 MB

     Dynamical RAM for          nlocal pot:      11.46 MB

     Dynamical RAM for                qrad:       4.06 MB

     Dynamical RAM for          rho,v,vnew:       5.59 MB

     Dynamical RAM for               rhoin:       1.86 MB

     Dynamical RAM for            rho*nmix:      13.84 MB

     Dynamical RAM for           G-vectors:       1.70 MB

     Dynamical RAM for          h,s,v(r/c):       0.63 MB

     Dynamical RAM for          <psi|beta>:       2.15 MB

     Dynamical RAM for      wfcinit/wfcrot:      12.09 MB

     Dynamical RAM for           addusdens:      91.25 MB

     Estimated static dynamical RAM per process >      58.88 MB

     Estimated max dynamical RAM per process >     150.13 MB

     Estimated total dynamical RAM >     600.53 MB

     Check: negative core charge=   -0.000024
     Generating pointlists ...
     new r_m :   0.1031 (alat units)  1.5380 (a.u.) for type    1
     new r_m :   0.1458 (alat units)  2.1750 (a.u.) for type    2
     new r_m :   0.1031 (alat units)  1.5380 (a.u.) for type    3
     new r_m :   0.1031 (alat units)  1.5380 (a.u.) for type    4

     Initial potential from superposition of free atoms

     starting charge  375.99958, renormalised to  392.00000

     negative rho (up, down):  1.487E-01 1.487E-01
     Starting wfcs are  272 randomized atomic wfcs

     total cpu time spent up to now is        7.2 secs

     Self-consistent Calculation

     iteration #  1     ecut=    20.00 Ry     beta= 0.40
     CG style diagonalization
     ethr =  1.00E-02,  avg # of iterations =  2.4

     negative rho (up, down):  1.384E-01 1.384E-01

     total cpu time spent up to now is       25.2 secs

     total energy              =   -4235.57237591 Ry
     estimated scf accuracy    <      37.14032526 Ry

     total magnetization       =    -0.03 Bohr mag/cell
     absolute magnetization    =    39.17 Bohr mag/cell

     iteration #  2     ecut=    20.00 Ry     beta= 0.40
     CG style diagonalization
     ethr =  9.47E-03,  avg # of iterations =  3.4

     negative rho (up, down):  1.370E-01 1.370E-01

     total cpu time spent up to now is       47.0 secs

     total energy              =   -4242.15326982 Ry
     estimated scf accuracy    <       8.43472096 Ry

     total magnetization       =     0.00 Bohr mag/cell
     absolute magnetization    =    36.07 Bohr mag/cell

     iteration #  3     ecut=    20.00 Ry     beta= 0.40
     CG style diagonalization
     ethr =  2.15E-03,  avg # of iterations =  3.2

     negative rho (up, down):  1.357E-01 1.357E-01

     total cpu time spent up to now is       68.7 secs

     total energy              =   -4243.99923947 Ry
     estimated scf accuracy    <       2.89371755 Ry

     total magnetization       =    -0.01 Bohr mag/cell
     absolute magnetization    =    34.82 Bohr mag/cell

     iteration #  4     ecut=    20.00 Ry     beta= 0.40
     CG style diagonalization
     ethr =  7.38E-04,  avg # of iterations =  3.4

     negative rho (up, down):  1.368E-01 1.368E-01

     total cpu time spent up to now is       95.0 secs

     total energy              =   -4244.23870248 Ry
     estimated scf accuracy    <       0.61594726 Ry

     total magnetization       =     0.19 Bohr mag/cell
     absolute magnetization    =    32.84 Bohr mag/cell

     iteration #  5     ecut=    20.00 Ry     beta= 0.40
     CG style diagonalization
     ethr =  1.57E-04,  avg # of iterations =  3.6

     negative rho (up, down):  1.373E-01 1.372E-01

     total cpu time spent up to now is      124.0 secs

     total energy              =   -4244.42126847 Ry
     estimated scf accuracy    <       0.34704712 Ry

     total magnetization       =    -0.04 Bohr mag/cell
     absolute magnetization    =    31.37 Bohr mag/cell

     iteration #  6     ecut=    20.00 Ry     beta= 0.40
     CG style diagonalization
     ethr =  8.85E-05,  avg # of iterations =  3.2

     negative rho (up, down):  1.378E-01 1.377E-01

     total cpu time spent up to now is      150.6 secs

     total energy              =   -4244.45233443 Ry
     estimated scf accuracy    <       0.08228688 Ry

     total magnetization       =     0.07 Bohr mag/cell
     absolute magnetization    =    30.95 Bohr mag/cell

     iteration #  7     ecut=    20.00 Ry     beta= 0.40
     CG style diagonalization
     ethr =  2.10E-05,  avg # of iterations =  3.3

     negative rho (up, down):  1.379E-01 1.379E-01

     total cpu time spent up to now is      179.1 secs

     total energy              =   -4244.46482588 Ry
     estimated scf accuracy    <       0.19785792 Ry

     total magnetization       =    -0.40 Bohr mag/cell
     absolute magnetization    =    30.62 Bohr mag/cell

     iteration #  8     ecut=    20.00 Ry     beta= 0.40
     CG style diagonalization
     ethr =  2.10E-05,  avg # of iterations =  3.1

     negative rho (up, down):  1.378E-01 1.377E-01

     total cpu time spent up to now is      205.0 secs

     total energy              =   -4244.47949437 Ry
     estimated scf accuracy    <       0.01493181 Ry

     total magnetization       =     0.08 Bohr mag/cell
     absolute magnetization    =    30.48 Bohr mag/cell

     iteration #  9     ecut=    20.00 Ry     beta= 0.40
     CG style diagonalization
     ethr =  3.81E-06,  avg # of iterations =  3.3

     negative rho (up, down):  1.378E-01 1.377E-01

     total cpu time spent up to now is      232.8 secs

     total energy              =   -4244.48283609 Ry
     estimated scf accuracy    <       0.00310475 Ry

     total magnetization       =     0.02 Bohr mag/cell
     absolute magnetization    =    30.55 Bohr mag/cell

     iteration # 10     ecut=    20.00 Ry     beta= 0.40
     CG style diagonalization
     c_bands:  1 eigenvalues not converged
     ethr =  7.92E-07,  avg # of iterations =  3.5

     negative rho (up, down):  1.378E-01 1.378E-01

     total cpu time spent up to now is      261.6 secs

     total energy              =   -4244.48242995 Ry
     estimated scf accuracy    <       0.00538640 Ry

     total magnetization       =     0.01 Bohr mag/cell
     absolute magnetization    =    30.43 Bohr mag/cell

     iteration # 11     ecut=    20.00 Ry     beta= 0.40
     CG style diagonalization
     ethr =  7.92E-07,  avg # of iterations =  3.3

     negative rho (up, down):  1.378E-01 1.378E-01

     total cpu time spent up to now is      288.4 secs

     total energy              =   -4244.48364614 Ry
     estimated scf accuracy    <       0.00183360 Ry

     total magnetization       =     0.02 Bohr mag/cell
     absolute magnetization    =    30.47 Bohr mag/cell

     iteration # 12     ecut=    20.00 Ry     beta= 0.40
     CG style diagonalization
     ethr =  4.68E-07,  avg # of iterations =  3.1

     negative rho (up, down):  1.378E-01 1.378E-01

     total cpu time spent up to now is      314.5 secs

     total energy              =   -4244.48392698 Ry
     estimated scf accuracy    <       0.00003598 Ry

     total magnetization       =     0.02 Bohr mag/cell
     absolute magnetization    =    30.44 Bohr mag/cell

     iteration # 13     ecut=    20.00 Ry     beta= 0.40
     CG style diagonalization
     ethr =  9.18E-09,  avg # of iterations =  3.8

     negative rho (up, down):  1.378E-01 1.378E-01

     total cpu time spent up to now is      346.2 secs

     total energy              =   -4244.48396475 Ry
     estimated scf accuracy    <       0.00001583 Ry

     total magnetization       =     0.01 Bohr mag/cell
     absolute magnetization    =    30.43 Bohr mag/cell

     iteration # 14     ecut=    20.00 Ry     beta= 0.40
     CG style diagonalization
     ethr =  4.04E-09,  avg # of iterations =  3.4

     negative rho (up, down):  1.378E-01 1.378E-01

     Magnetic moment per site:
     atom:    1    charge:   11.7719    magn:    0.0004    constr:    0.0000
     atom:    2    charge:   11.7718    magn:    0.0004    constr:    0.0000
     atom:    3    charge:   11.7718    magn:    0.0005    constr:    0.0000
     atom:    4    charge:   11.7718    magn:    0.0005    constr:    0.0000
     atom:    5    charge:   11.7719    magn:    0.0005    constr:    0.0000
     atom:    6    charge:   11.7718    magn:    0.0004    constr:    0.0000
     atom:    7    charge:   11.7718    magn:    0.0005    constr:    0.0000
     atom:    8    charge:   11.7718    magn:    0.0005    constr:    0.0000
     atom:    9    charge:   13.1874    magn:    3.3051    constr:    0.0000
     atom:   10    charge:   13.1874    magn:    3.3051    constr:    0.0000
     atom:   11    charge:   13.1878    magn:   -3.3048    constr:    0.0000
     atom:   12    charge:   13.1878    magn:   -3.3048    constr:    0.0000
     atom:   13    charge:   13.1874    magn:    3.3051    constr:    0.0000
     atom:   14    charge:   13.1874    magn:    3.3051    constr:    0.0000
     atom:   15    charge:   13.1878    magn:   -3.3048    constr:    0.0000
     atom:   16    charge:   13.1878    magn:   -3.3048    constr:    0.0000
     atom:   17    charge:    5.3913    magn:    0.1063    constr:    0.0000
     atom:   18    charge:    5.3844    magn:   -0.0001    constr:    0.0000
     atom:   19    charge:    5.3844    magn:   -0.0001    constr:    0.0000
     atom:   20    charge:    5.3913    magn:    0.1063    constr:    0.0000
     atom:   21    charge:    5.3917    magn:   -0.1063    constr:    0.0000
     atom:   22    charge:    5.3917    magn:   -0.1063    constr:    0.0000
     atom:   23    charge:    5.3913    magn:    0.1062    constr:    0.0000
     atom:   24    charge:    5.3913    magn:    0.1062    constr:    0.0000
     atom:   25    charge:    5.3917    magn:   -0.1063    constr:    0.0000
     atom:   26    charge:    5.3917    magn:   -0.1063    constr:    0.0000
     atom:   27    charge:    5.3841    magn:   -0.0001    constr:    0.0000
     atom:   28    charge:    5.3844    magn:   -0.0001    constr:    0.0000
     atom:   29    charge:    5.3841    magn:   -0.0001    constr:    0.0000
     atom:   30    charge:    5.3844    magn:   -0.0001    constr:    0.0000
     atom:   31    charge:    5.3841    magn:   -0.0001    constr:    0.0000
     atom:   32    charge:    5.3844    magn:   -0.0001    constr:    0.0000
     atom:   33    charge:    5.3841    magn:   -0.0001    constr:    0.0000
     atom:   34    charge:    5.3841    magn:   -0.0001    constr:    0.0000
     atom:   35    charge:    5.3841    magn:   -0.0001    constr:    0.0000
     atom:   36    charge:    5.3844    magn:   -0.0001    constr:    0.0000
     atom:   37    charge:    5.3844    magn:   -0.0001    constr:    0.0000
     atom:   38    charge:    5.3841    magn:   -0.0001    constr:    0.0000
     atom:   39    charge:    5.3841    magn:   -0.0001    constr:    0.0000
     atom:   40    charge:    5.3844    magn:   -0.0001    constr:    0.0000

     total cpu time spent up to now is      374.6 secs

     End of self-consistent calculation

 ------ SPIN UP ------------


          k = 0.0000 0.0000 0.0000 (  4945 PWs)   bands (ev):

   -80.4266 -80.4193 -80.4180 -80.3970 -76.2351 -76.2273 -76.2250 -76.2057
   -45.6948 -45.6089 -45.5932 -45.5840 -45.3458 -45.3458 -45.3435 -45.3435
   -45.3350 -45.3350 -45.2237 -45.2237 -41.5349 -41.4515 -41.4349 -41.4215
   -41.2855 -41.2855 -41.2840 -41.2840 -41.2748 -41.2748 -41.1665 -41.1665
   -11.7217 -11.7151 -11.7075 -11.7074 -11.6872 -11.6872 -11.6846 -11.6846
   -11.6673 -11.6673 -11.6669 -11.6668 -11.6649 -11.6647 -11.6572 -11.6571
   -11.6558 -11.6532 -11.6530 -11.6466 -11.6454 -11.6266 -11.6265 -11.6219
   -11.6179 -11.6179 -11.6178 -11.6176 -11.6175 -11.6172 -11.6172 -11.6171
   -11.6081 -11.6065 -11.6062 -11.6036 -11.6036 -11.5851 -11.5850 -11.5763
    -7.4791  -6.8518  -6.7270  -6.7223  -6.2678  -6.2318  -6.2022  -6.1225
    -6.1225  -6.1006  -6.0965  -5.9996  -5.9819  -5.9819  -5.9805  -5.9805
    -5.9188  -5.8300  -5.8300  -5.7786  -5.7168  -5.6708  -5.6704  -5.6567
     0.8196   0.8196   0.8395   1.1602   1.1683   1.1683   1.8534   1.9185
     5.2651   5.3114   5.3114   5.4297   5.6604   5.8007   5.8368   5.9204
     6.1778   6.4984   6.5698   6.6073   6.6502   6.6502   6.6596   6.7076
     7.1040   7.1162   7.1617   7.1617   7.1714   7.2420   7.2420   7.4369
     7.4486   7.4486   7.5260   7.5969   7.5969   7.6277   7.6486   7.6486
     7.6929   7.7037   7.7570   7.7619   7.7619   7.7692   7.7692   7.8106
     7.8106   8.0831   8.4493   8.5952   8.5952   8.6500   8.6500   8.6605
     8.7578   9.2151   9.2151   9.4840   9.4840   9.4940   9.4958   9.6817
     9.6817   9.7906   9.8074   9.8079   9.8079   9.9307   9.9308   9.9448
     9.9512  10.0418  10.0419  10.2971  10.3059  10.3059  10.3250  10.3951
    10.3951  10.4433  10.5788  10.5862  10.5862  10.5981  10.5981  10.7696
    10.8000  10.8185  10.9135  10.9135  10.9663  10.9663  10.9836  11.0312
    11.0516  11.0525  11.7950  11.9038  12.0343  12.1213  12.4274  12.5938
    12.5938  12.6569  12.6569  12.6892  12.7609  12.8099  12.9483  12.9484
    13.1315  13.1315  13.3146  13.3494  13.4946  13.7480  13.7584  13.8253
    14.0505  14.4883  14.7371  14.7371  14.7451  14.7640  14.8291  14.8291
    15.2410  15.2880  15.2882  15.2927  15.3089  15.3597  15.3598  16.3150
    16.4621  16.4622  16.5278

     occupation numbers 
     1.0000   1.0000   1.0000   1.0000   1.0000   1.0000   1.0000   1.0000
     1.0000   1.0000   1.0000   1.0000   1.0000   1.0000   1.0000   1.0000
     1.0000   1.0000   1.0000   1.0000   1.0000   1.0000   1.0000   1.0000
     1.0000   1.0000   1.0000   1.0000   1.0000   1.0000   1.0000   1.0000
     1.0000   1.0000   1.0000   1.0000   1.0000   1.0000   1.0000   1.0000
     1.0000   1.0000   1.0000   1.0000   1.0000   1.0000   1.0000   1.0000
     1.0000   1.0000   1.0000   1.0000   1.0000   1.0000   1.0000   1.0000
     1.0000   1.0000   1.0000   1.0000   1.0000   1.0000   1.0000   1.0000
     1.0000   1.0000   1.0000   1.0000   1.0000   1.0000   1.0000   1.0000
     1.0000   1.0000   1.0000   1.0000   1.0000   1.0000   1.0000   1.0000
     1.0000   1.0000   1.0000   1.0000   1.0000   1.0000   1.0000   1.0000
     1.0000   1.0000   1.0000   1.0000   1.0000   1.0000   1.0000   1.0000
     1.0000   1.0000   1.0000   1.0000   1.0000   1.0000   1.0000   1.0000
     1.0000   1.0000   1.0000   1.0000   1.0000   1.0000   1.0000   1.0000
     1.0000   1.0000   1.0000   1.0000   1.0000   1.0000   1.0000   1.0000
     1.0000   1.0000   1.0000   1.0000   1.0000   1.0000   1.0000   1.0000
     1.0000   1.0000   1.0000   1.0000   1.0000   1.0000   1.0000   1.0000
     1.0000   1.0000   1.0000   1.0000   1.0000   1.0000   1.0000   1.0000
     1.0000   1.0000   1.0000   1.0000   1.0000   1.0000   1.0000   1.0000
     1.0000   1.0000   1.0000   1.0000   1.0000   1.0000   1.0000   1.0000
     1.0000   1.0000   1.0000   1.0000   1.0000   1.0000   1.0000   1.0000
     1.0000   1.0000   1.0000   1.0000   1.0000   1.0000   1.0000   1.0000
     1.0000   1.0000   1.0000   1.0000   1.0000   1.0000   1.0000   1.0000
     1.0000   1.0000   1.0000   1.0000   1.0000   1.0000   1.0000   1.0000
     1.0000   1.0000   1.0350   0.8603   0.1429  -0.0334  -0.0000  -0.0000
    -0.0000  -0.0000  -0.0000  -0.0000  -0.0000  -0.0000  -0.0000  -0.0000
    -0.0000  -0.0000  -0.0000  -0.0000  -0.0000  -0.0000  -0.0000  -0.0000
    -0.0000  -0.0000  -0.0000  -0.0000  -0.0000  -0.0000  -0.0000  -0.0000
    -0.0000  -0.0000  -0.0000  -0.0000  -0.0000  -0.0000  -0.0000  -0.0000
    -0.0000  -0.0000  -0.0000

 ------ SPIN DOWN ----------


          k = 0.0000 0.0000 0.0000 (  4945 PWs)   bands (ev):

   -80.4267 -80.4194 -80.4181 -80.3971 -76.2342 -76.2264 -76.2242 -76.2048
   -45.6943 -45.6084 -45.5927 -45.5835 -45.3463 -45.3462 -45.3440 -45.3439
   -45.3355 -45.3355 -45.2241 -45.2241 -41.5337 -41.4503 -41.4336 -41.4202
   -41.2848 -41.2848 -41.2833 -41.2833 -41.2741 -41.2741 -41.1658 -41.1658
   -11.7215 -11.7149 -11.7072 -11.7072 -11.6870 -11.6869 -11.6844 -11.6843
   -11.6671 -11.6671 -11.6667 -11.6667 -11.6649 -11.6642 -11.6569 -11.6569
   -11.6556 -11.6530 -11.6527 -11.6464 -11.6451 -11.6263 -11.6263 -11.6216
   -11.6178 -11.6178 -11.6177 -11.6174 -11.6172 -11.6170 -11.6169 -11.6167
   -11.6078 -11.6065 -11.6057 -11.6034 -11.6034 -11.5848 -11.5847 -11.5760
    -7.4792  -6.8529  -6.7261  -6.7224  -6.2687  -6.2322  -6.2039  -6.1225
    -6.1225  -6.1008  -6.0966  -5.9978  -5.9820  -5.9820  -5.9806  -5.9806
    -5.9178  -5.8302  -5.8302  -5.7794  -5.7164  -5.6709  -5.6695  -5.6568
     0.8206   0.8207   0.8406   1.1613   1.1693   1.1694   1.8545   1.9196
     5.2648   5.3117   5.3117   5.4301   5.6594   5.8004   5.8369   5.9205
     6.1776   6.4986   6.5699   6.6074   6.6503   6.6504   6.6594   6.7073
     7.1038   7.1177   7.1611   7.1611   7.1727   7.2418   7.2418   7.4365
     7.4491   7.4491   7.5258   7.5966   7.5966   7.6264   7.6492   7.6492
     7.6933   7.7044   7.7581   7.7618   7.7619   7.7697   7.7697   7.8105
     7.8106   8.0836   8.4491   8.5951   8.5951   8.6510   8.6511   8.6603
     8.7581   9.2152   9.2152   9.4841   9.4841   9.4945   9.4958   9.6817
     9.6817   9.7910   9.8075   9.8076   9.8076   9.9309   9.9309   9.9448
     9.9512  10.0418  10.0418  10.2964  10.3057  10.3057  10.3255  10.3950
    10.3951  10.4432  10.5787  10.5866  10.5867  10.5971  10.5971  10.7694
    10.8000  10.8184  10.9137  10.9137  10.9663  10.9664  10.9835  11.0312
    11.0516  11.0527  11.7950  11.9049  12.0354  12.1231  12.4283  12.5943
    12.5943  12.6573  12.6573  12.6895  12.7626  12.8106  12.9490  12.9490
    13.1322  13.1322  13.3153  13.3500  13.4959  13.7489  13.7602  13.8267
    14.0510  14.4883  14.7381  14.7381  14.7458  14.7651  14.8300  14.8300
    15.2451  15.2892  15.2893  15.2934  15.3108  15.3608  15.3608  16.3159
    16.4633  16.4633  16.5289

     occupation numbers 
     1.0000   1.0000   1.0000   1.0000   1.0000   1.0000   1.0000   1.0000
     1.0000   1.0000   1.0000   1.0000   1.0000   1.0000   1.0000   1.0000
     1.0000   1.0000   1.0000   1.0000   1.0000   1.0000   1.0000   1.0000
     1.0000   1.0000   1.0000   1.0000   1.0000   1.0000   1.0000   1.0000
     1.0000   1.0000   1.0000   1.0000   1.0000   1.0000   1.0000   1.0000
     1.0000   1.0000   1.0000   1.0000   1.0000   1.0000   1.0000   1.0000
     1.0000   1.0000   1.0000   1.0000   1.0000   1.0000   1.0000   1.0000
     1.0000   1.0000   1.0000   1.0000   1.0000   1.0000   1.0000   1.0000
     1.0000   1.0000   1.0000   1.0000   1.0000   1.0000   1.0000   1.0000
     1.0000   1.0000   1.0000   1.0000   1.0000   1.0000   1.0000   1.0000
     1.0000   1.0000   1.0000   1.0000   1.0000   1.0000   1.0000   1.0000
     1.0000   1.0000   1.0000   1.0000   1.0000   1.0000   1.0000   1.0000
     1.0000   1.0000   1.0000   1.0000   1.0000   1.0000   1.0000   1.0000
     1.0000   1.0000   1.0000   1.0000   1.0000   1.0000   1.0000   1.0000
     1.0000   1.0000   1.0000   1.0000   1.0000   1.0000   1.0000   1.0000
     1.0000   1.0000   1.0000   1.0000   1.0000   1.0000   1.0000   1.0000
     1.0000   1.0000   1.0000   1.0000   1.0000   1.0000   1.0000   1.0000
     1.0000   1.0000   1.0000   1.0000   1.0000   1.0000   1.0000   1.0000
     1.0000   1.0000   1.0000   1.0000   1.0000   1.0000   1.0000   1.0000
     1.0000   1.0000   1.0000   1.0000   1.0000   1.0000   1.0000   1.0000
     1.0000   1.0000   1.0000   1.0000   1.0000   1.0000   1.0000   1.0000
     1.0000   1.0000   1.0000   1.0000   1.0000   1.0000   1.0000   1.0000
     1.0000   1.0000   1.0000   1.0000   1.0000   1.0000   1.0000   1.0000
     1.0000   1.0000   1.0000   1.0000   1.0000   1.0000   1.0000   1.0000
     1.0000   1.0000   1.0350   0.8559   0.1383  -0.0339  -0.0000  -0.0000
    -0.0000  -0.0000  -0.0000  -0.0000  -0.0000  -0.0000  -0.0000  -0.0000
    -0.0000  -0.0000  -0.0000  -0.0000  -0.0000  -0.0000  -0.0000  -0.0000
    -0.0000  -0.0000  -0.0000  -0.0000  -0.0000  -0.0000  -0.0000  -0.0000
    -0.0000  -0.0000  -0.0000  -0.0000  -0.0000  -0.0000  -0.0000  -0.0000
    -0.0000  -0.0000  -0.0000

     the Fermi energy is    11.9694 ev

!    total energy              =   -4244.48397649 Ry
     estimated scf accuracy    <       0.00000651 Ry
     smearing contrib. (-TS)   =       0.00004529 Ry
     internal energy E=F+TS    =   -4244.48402179 Ry

     The total energy is F=E-TS. E is the sum of the following terms:
     one-electron contribution =   -1661.04003527 Ry
     hartree contribution      =    1074.44517648 Ry
     xc contribution           =    -920.28538823 Ry
     ewald contribution        =   -2737.60377477 Ry

     total magnetization       =     0.01 Bohr mag/cell
     absolute magnetization    =    30.43 Bohr mag/cell

     convergence has been achieved in  14 iterations

     Writing output data file /home/aldair1809/Documentos/QE/4BFO/temp/bifeo3.save/

     init_run     :      6.48s CPU      6.82s WALL (       1 calls)
     electrons    :    355.83s CPU    367.47s WALL (       1 calls)

     Called by init_run:
     wfcinit      :      5.06s CPU      5.11s WALL (       1 calls)
     wfcinit:atom :      0.01s CPU      0.01s WALL (       2 calls)
     wfcinit:wfcr :      5.00s CPU      5.05s WALL (       2 calls)
     potinit      :      0.17s CPU      0.20s WALL (       1 calls)
     hinit0       :      0.33s CPU      0.34s WALL (       1 calls)

     Called by electrons:
     c_bands      :    300.45s CPU    303.99s WALL (      14 calls)
     sum_band     :     38.17s CPU     42.49s WALL (      14 calls)
     v_of_rho     :      2.24s CPU      2.32s WALL (      15 calls)
     v_h          :      0.07s CPU      0.08s WALL (      15 calls)
     v_xc         :      2.17s CPU      2.24s WALL (      15 calls)
     newd         :     15.38s CPU     19.31s WALL (      15 calls)
     mix_rho      :      0.35s CPU      0.36s WALL (      14 calls)

     Called by c_bands:
     init_us_2    :      0.40s CPU      0.41s WALL (      58 calls)
     ccgdiagg     :    231.84s CPU    234.93s WALL (      28 calls)
     wfcrot       :     73.26s CPU     73.76s WALL (      28 calls)

     Called by sum_band:
     sum_band:wei :      0.01s CPU      0.01s WALL (      14 calls)
     sum_band:loo :     18.87s CPU     19.11s WALL (      14 calls)
     sum_band:buf :      0.07s CPU      0.07s WALL (      28 calls)
     sum_band:ini :      0.20s CPU      0.20s WALL (      28 calls)
     sum_band:cal :     15.26s CPU     15.30s WALL (      28 calls)
     sum_band:bec :      0.21s CPU      0.22s WALL (      28 calls)
     addusdens    :     18.83s CPU     22.88s WALL (      14 calls)
     addusd:skk   :      0.09s CPU      0.10s WALL (      56 calls)
     addusd:dgemm :     12.32s CPU     15.59s WALL (     112 calls)
     addusd:qvan2 :      6.20s CPU      6.20s WALL (     112 calls)

     Called by *cgdiagg:
     h_psi        :    132.61s CPU    135.09s WALL (   15452 calls)
     s_psi        :     92.91s CPU     93.31s WALL (   30876 calls)

     Called by h_psi:
     h_psi:calbec :     54.84s CPU     55.84s WALL (   15452 calls)
     vloc_psi     :     22.26s CPU     23.59s WALL (   15452 calls)
     add_vuspsi   :     55.14s CPU     55.34s WALL (   15452 calls)
     hs_1psi      :    133.06s CPU    135.27s WALL (   15424 calls)
     s_1psi       :     75.85s CPU     76.52s WALL (   15424 calls)

     General routines
     calbec       :    107.54s CPU    109.16s WALL (   30904 calls)
     fft          :      1.33s CPU      1.43s WALL (     369 calls)
     ffts         :      0.05s CPU      0.06s WALL (      58 calls)
     fftw         :     22.66s CPU     24.05s WALL (   50736 calls)
     interpolate  :      0.16s CPU      0.17s WALL (      30 calls)

     Parallel routines
     fft_scatt_xy :      2.98s CPU      3.16s WALL (   51163 calls)
     fft_scatt_yz :      4.37s CPU      4.75s WALL (   51163 calls)

     PWSCF        :   6m 2.69s CPU   6m14.78s WALL


   This run was terminated on:  13:12:16  24Oct2024            

=------------------------------------------------------------------------------=
   JOB DONE.
=------------------------------------------------------------------------------=
