
     Program PWSCF v.6.7MaX starts on 24Oct2024 at 13:34:55 

     This program is part of the open-source Quantum ESPRESSO suite
     for quantum simulation of materials; please cite
         "P. Giannozzi et al., J. Phys.:Condens. Matter 21 395502 (2009);
         "P. Giannozzi et al., J. Phys.:Condens. Matter 29 465901 (2017);
          URL http://www.quantum-espresso.org", 
     in publications or presentations arising from this work. More details at
     http://www.quantum-espresso.org/quote

     Parallel version (MPI), running on     4 processors

     MPI processes distributed on     1 nodes
     R & G space division:  proc/nbgrp/npool/nimage =       4
     Waiting for input...
     Reading input from standard input

     Current dimensions of program PWSCF are:
     Max number of different atomic species (ntypx) = 10
     Max number of k-points (npk) =  40000
     Max angular momentum in pseudopotentials (lmaxx) =  3
     Message from routine iosys:
     wrong startingpot: use default (1)

     Subspace diagonalization in iterative solution of the eigenvalue problem:
     one sub-group per band group will be used
     scalapack distributed-memory algorithm (size of sub-group:  2*  2 procs)

     Found symmetry operation: I + ( -0.5000 -0.5000  0.0000)
     This is a supercell, fractional translations are disabled

     Parallelization info
     --------------------
     sticks:   dense  smooth     PW     G-vecs:    dense   smooth      PW
     Min        1239     619    154                65627    23147    2908
     Max        1240     620    156                65630    23148    2909
     Sum        4957    2477    621               262515    92589   11633



     bravais-lattice index     =            1
     lattice parameter (alat)  =      14.9137  a.u.
     unit-cell volume          =    3317.0944 (a.u.)^3
     number of atoms/cell      =           40
     number of atomic types    =            4
     number of electrons       =       392.00
     number of Kohn-Sham states=          235
     kinetic-energy cutoff     =      35.0000  Ry
     charge density cutoff     =     280.0000  Ry
     scf convergence threshold =      1.0E-05
     mixing beta               =       0.4000
     number of iterations used =            8  plain     mixing
     Exchange-correlation=  SLA  PW   PBX  PBC
                           (   1   4   3   4   0   0   0)

     celldm(1)=  14.913719  celldm(2)=   0.000000  celldm(3)=   0.000000
     celldm(4)=   0.000000  celldm(5)=   0.000000  celldm(6)=   0.000000

     crystal axes: (cart. coord. in units of alat)
               a(1) = (   1.000000   0.000000   0.000000 )  
               a(2) = (   0.000000   1.000000   0.000000 )  
               a(3) = (   0.000000   0.000000   1.000000 )  

     reciprocal axes: (cart. coord. in units 2 pi/alat)
               b(1) = (  1.000000  0.000000  0.000000 )  
               b(2) = (  0.000000  1.000000  0.000000 )  
               b(3) = (  0.000000  0.000000  1.000000 )  


     PseudoPot. # 1 for O  read from file:
     /home/aldair1809/Programas/QE/q-e-qe-7.3/pseudo/o_pbe_v1.2.uspp.F.UPF
     MD5 check sum: 734c27235a0248c51dbae37a1fbe46ec
     Pseudo is Ultrasoft + core correction, Zval =  6.0
     Generated by new atomic code, or converted to UPF format
     Using radial grid of  737 points,  5 beta functions with: 
                l(1) =   0
                l(2) =   0
                l(3) =   1
                l(4) =   1
                l(5) =   2
     Q(r) pseudized with  8 coefficients,  rinner =    0.900   0.900   0.900
                                                       0.900   0.900

     PseudoPot. # 2 for Bi read from file:
     /home/aldair1809/Programas/QE/q-e-qe-7.3/pseudo/bi_pbe_v1.uspp.F.UPF
     MD5 check sum: cceb9f28ec65b6d7ff33140f5b0b1758
     Pseudo is Ultrasoft + core correction, Zval = 15.0
     Generated by new atomic code, or converted to UPF format
     Using radial grid of  899 points,  6 beta functions with: 
                l(1) =   0
                l(2) =   0
                l(3) =   1
                l(4) =   1
                l(5) =   2
                l(6) =   2
     Q(r) pseudized with  6 coefficients,  rinner =    1.000   1.000   1.000
                                                       1.000   1.000

     PseudoPot. # 3 for Fe read from file:
     /home/aldair1809/Programas/QE/q-e-qe-7.3/pseudo/fe_pbe_v1.5.uspp.F.UPF
     MD5 check sum: a130daea23fe5165f5d574ae7f82ed95
     Pseudo is Ultrasoft + core correction, Zval = 16.0
     Generated by new atomic code, or converted to UPF format
     Using radial grid of  861 points,  6 beta functions with: 
                l(1) =   0
                l(2) =   0
                l(3) =   1
                l(4) =   1
                l(5) =   2
                l(6) =   2
     Q(r) pseudized with  8 coefficients,  rinner =    1.000   1.000   1.000
                                                       1.000   1.000

     PseudoPot. # 4 for Fe read from file:
     /home/aldair1809/Programas/QE/q-e-qe-7.3/pseudo/fe_pbe_v1.5.uspp.F.UPF
     MD5 check sum: a130daea23fe5165f5d574ae7f82ed95
     Pseudo is Ultrasoft + core correction, Zval = 16.0
     Generated by new atomic code, or converted to UPF format
     Using radial grid of  861 points,  6 beta functions with: 
                l(1) =   0
                l(2) =   0
                l(3) =   1
                l(4) =   1
                l(5) =   2
                l(6) =   2
     Q(r) pseudized with  8 coefficients,  rinner =    1.000   1.000   1.000
                                                       1.000   1.000

     atomic species   valence    mass     pseudopotential
        O              6.00    15.99940     O ( 1.00)
        Bi            15.00   208.98040     Bi( 1.00)
        Fe1           16.00    55.84500     Fe( 1.00)
        Fe2           16.00    55.84500     Fe( 1.00)

     Starting magnetic structure 
     atomic species   magnetization
        O            0.000
        Bi           0.000
        Fe1         -0.800
        Fe2          0.800

      8 Sym. Ops., with inversion, found


                                    s                        frac. trans.

      isym =  1     identity                                     

 cryst.   s( 1) = (     1          0          0      )
                  (     0          1          0      )
                  (     0          0          1      )

 cart.    s( 1) = (  1.0000000  0.0000000  0.0000000 )
                  (  0.0000000  1.0000000  0.0000000 )
                  (  0.0000000  0.0000000  1.0000000 )


      isym =  2     180 deg rotation - cart. axis [0,0,1]        

 cryst.   s( 2) = (    -1          0          0      )
                  (     0         -1          0      )
                  (     0          0          1      )

 cart.    s( 2) = ( -1.0000000  0.0000000  0.0000000 )
                  (  0.0000000 -1.0000000  0.0000000 )
                  (  0.0000000  0.0000000  1.0000000 )


      isym =  3     180 deg rotation - cart. axis [1,1,0]        

 cryst.   s( 3) = (     0          1          0      )
                  (     1          0          0      )
                  (     0          0         -1      )

 cart.    s( 3) = (  0.0000000  1.0000000  0.0000000 )
                  (  1.0000000  0.0000000  0.0000000 )
                  (  0.0000000  0.0000000 -1.0000000 )


      isym =  4     180 deg rotation - cart. axis [1,-1,0]       

 cryst.   s( 4) = (     0         -1          0      )
                  (    -1          0          0      )
                  (     0          0         -1      )

 cart.    s( 4) = (  0.0000000 -1.0000000  0.0000000 )
                  ( -1.0000000  0.0000000  0.0000000 )
                  (  0.0000000  0.0000000 -1.0000000 )


      isym =  5     inversion                                    

 cryst.   s( 5) = (    -1          0          0      )
                  (     0         -1          0      )
                  (     0          0         -1      )

 cart.    s( 5) = ( -1.0000000  0.0000000  0.0000000 )
                  (  0.0000000 -1.0000000  0.0000000 )
                  (  0.0000000  0.0000000 -1.0000000 )


      isym =  6     inv. 180 deg rotation - cart. axis [0,0,1]   

 cryst.   s( 6) = (     1          0          0      )
                  (     0          1          0      )
                  (     0          0         -1      )

 cart.    s( 6) = (  1.0000000  0.0000000  0.0000000 )
                  (  0.0000000  1.0000000  0.0000000 )
                  (  0.0000000  0.0000000 -1.0000000 )


      isym =  7     inv. 180 deg rotation - cart. axis [1,1,0]   

 cryst.   s( 7) = (     0         -1          0      )
                  (    -1          0          0      )
                  (     0          0          1      )

 cart.    s( 7) = (  0.0000000 -1.0000000  0.0000000 )
                  ( -1.0000000  0.0000000  0.0000000 )
                  (  0.0000000  0.0000000  1.0000000 )


      isym =  8     inv. 180 deg rotation - cart. axis [1,-1,0]  

 cryst.   s( 8) = (     0          1          0      )
                  (     1          0          0      )
                  (     0          0          1      )

 cart.    s( 8) = (  0.0000000  1.0000000  0.0000000 )
                  (  1.0000000  0.0000000  0.0000000 )
                  (  0.0000000  0.0000000  1.0000000 )


     point group D_2h (mmm) 
     there are  8 classes
     the character table:

       E     C2    C2'   C2''  i     s_v   s_v'  s_v''
A_g    1.00  1.00  1.00  1.00  1.00  1.00  1.00  1.00
B_1g   1.00  1.00 -1.00 -1.00  1.00  1.00 -1.00 -1.00
B_2g   1.00 -1.00  1.00 -1.00  1.00 -1.00  1.00 -1.00
B_3g   1.00 -1.00 -1.00  1.00  1.00 -1.00 -1.00  1.00
A_u    1.00  1.00  1.00  1.00 -1.00 -1.00 -1.00 -1.00
B_1u   1.00  1.00 -1.00 -1.00 -1.00 -1.00  1.00  1.00
B_2u   1.00 -1.00  1.00 -1.00 -1.00  1.00 -1.00  1.00
B_3u   1.00 -1.00 -1.00  1.00 -1.00  1.00  1.00 -1.00

     the symmetry operations in each class and the name of the first element:

     E        1
          identity                                               
     C2       2
          180 deg rotation - cart. axis [0,0,1]                  
     C2'      4
          180 deg rotation - cart. axis [1,-1,0]                 
     C2''     3
          180 deg rotation - cart. axis [1,1,0]                  
     i        5
          inversion                                              
     s_v      6
          inv. 180 deg rotation - cart. axis [0,0,1]             
     s_v'     8
          inv. 180 deg rotation - cart. axis [1,-1,0]            
     s_v''    7
          inv. 180 deg rotation - cart. axis [1,1,0]             

   Cartesian axes

     site n.     atom                  positions (alat units)
         1           Bi  tau(   1) = (   0.0000000   0.0000000   0.0000000  )
         2           Bi  tau(   2) = (   0.5000000   0.5000000   0.0000000  )
         3           Bi  tau(   3) = (   0.5000000   0.0000000   0.0000000  )
         4           Bi  tau(   4) = (   0.0000000   0.5000000   0.5000000  )
         5           Bi  tau(   5) = (   0.0000000   0.0000000   0.5000000  )
         6           Bi  tau(   6) = (   0.5000000   0.5000000   0.5000000  )
         7           Bi  tau(   7) = (   0.5000000   0.0000000   0.5000000  )
         8           Bi  tau(   8) = (   0.0000000   0.5000000   0.0000000  )
         9           Fe2 tau(   9) = (   0.2500000   0.2500000   0.2500000  )
        10           Fe2 tau(  10) = (   0.7500000   0.7500000   0.2500000  )
        11           Fe1 tau(  11) = (   0.7500000   0.2500000   0.2500000  )
        12           Fe1 tau(  12) = (   0.2500000   0.7500000   0.7500000  )
        13           Fe2 tau(  13) = (   0.2500000   0.2500000   0.7500000  )
        14           Fe2 tau(  14) = (   0.7500000   0.7500000   0.7500000  )
        15           Fe1 tau(  15) = (   0.7500000   0.2500000   0.7500000  )
        16           Fe1 tau(  16) = (   0.2500000   0.7500000   0.2500000  )
        17           O   tau(  17) = (   0.2500000   0.2500000   0.0000000  )
        18           O   tau(  18) = (   0.2500000   0.0000000   0.2500000  )
        19           O   tau(  19) = (   0.0000000   0.2500000   0.2500000  )
        20           O   tau(  20) = (   0.7500000   0.7500000   0.0000000  )
        21           O   tau(  21) = (   0.7500000   0.2500000   0.0000000  )
        22           O   tau(  22) = (   0.2500000   0.7500000   0.5000000  )
        23           O   tau(  23) = (   0.2500000   0.2500000   0.5000000  )
        24           O   tau(  24) = (   0.7500000   0.7500000   0.5000000  )
        25           O   tau(  25) = (   0.7500000   0.2500000   0.5000000  )
        26           O   tau(  26) = (   0.2500000   0.7500000   0.0000000  )
        27           O   tau(  27) = (   0.7500000   0.5000000   0.2500000  )
        28           O   tau(  28) = (   0.7500000   0.0000000   0.2500000  )
        29           O   tau(  29) = (   0.2500000   0.5000000   0.7500000  )
        30           O   tau(  30) = (   0.2500000   0.0000000   0.7500000  )
        31           O   tau(  31) = (   0.7500000   0.5000000   0.7500000  )
        32           O   tau(  32) = (   0.7500000   0.0000000   0.7500000  )
        33           O   tau(  33) = (   0.2500000   0.5000000   0.2500000  )
        34           O   tau(  34) = (   0.5000000   0.7500000   0.2500000  )
        35           O   tau(  35) = (   0.5000000   0.2500000   0.2500000  )
        36           O   tau(  36) = (   0.0000000   0.7500000   0.7500000  )
        37           O   tau(  37) = (   0.0000000   0.2500000   0.7500000  )
        38           O   tau(  38) = (   0.5000000   0.7500000   0.7500000  )
        39           O   tau(  39) = (   0.5000000   0.2500000   0.7500000  )
        40           O   tau(  40) = (   0.0000000   0.7500000   0.2500000  )

   Crystallographic axes

     site n.     atom                  positions (cryst. coord.)
         1           Bi  tau(   1) = (  0.0000000  0.0000000  0.0000000  )
         2           Bi  tau(   2) = (  0.5000000  0.5000000  0.0000000  )
         3           Bi  tau(   3) = (  0.5000000  0.0000000  0.0000000  )
         4           Bi  tau(   4) = (  0.0000000  0.5000000  0.5000000  )
         5           Bi  tau(   5) = (  0.0000000  0.0000000  0.5000000  )
         6           Bi  tau(   6) = (  0.5000000  0.5000000  0.5000000  )
         7           Bi  tau(   7) = (  0.5000000  0.0000000  0.5000000  )
         8           Bi  tau(   8) = (  0.0000000  0.5000000  0.0000000  )
         9           Fe2 tau(   9) = (  0.2500000  0.2500000  0.2500000  )
        10           Fe2 tau(  10) = (  0.7500000  0.7500000  0.2500000  )
        11           Fe1 tau(  11) = (  0.7500000  0.2500000  0.2500000  )
        12           Fe1 tau(  12) = (  0.2500000  0.7500000  0.7500000  )
        13           Fe2 tau(  13) = (  0.2500000  0.2500000  0.7500000  )
        14           Fe2 tau(  14) = (  0.7500000  0.7500000  0.7500000  )
        15           Fe1 tau(  15) = (  0.7500000  0.2500000  0.7500000  )
        16           Fe1 tau(  16) = (  0.2500000  0.7500000  0.2500000  )
        17           O   tau(  17) = (  0.2500000  0.2500000  0.0000000  )
        18           O   tau(  18) = (  0.2500000  0.0000000  0.2500000  )
        19           O   tau(  19) = (  0.0000000  0.2500000  0.2500000  )
        20           O   tau(  20) = (  0.7500000  0.7500000  0.0000000  )
        21           O   tau(  21) = (  0.7500000  0.2500000  0.0000000  )
        22           O   tau(  22) = (  0.2500000  0.7500000  0.5000000  )
        23           O   tau(  23) = (  0.2500000  0.2500000  0.5000000  )
        24           O   tau(  24) = (  0.7500000  0.7500000  0.5000000  )
        25           O   tau(  25) = (  0.7500000  0.2500000  0.5000000  )
        26           O   tau(  26) = (  0.2500000  0.7500000  0.0000000  )
        27           O   tau(  27) = (  0.7500000  0.5000000  0.2500000  )
        28           O   tau(  28) = (  0.7500000  0.0000000  0.2500000  )
        29           O   tau(  29) = (  0.2500000  0.5000000  0.7500000  )
        30           O   tau(  30) = (  0.2500000  0.0000000  0.7500000  )
        31           O   tau(  31) = (  0.7500000  0.5000000  0.7500000  )
        32           O   tau(  32) = (  0.7500000  0.0000000  0.7500000  )
        33           O   tau(  33) = (  0.2500000  0.5000000  0.2500000  )
        34           O   tau(  34) = (  0.5000000  0.7500000  0.2500000  )
        35           O   tau(  35) = (  0.5000000  0.2500000  0.2500000  )
        36           O   tau(  36) = (  0.0000000  0.7500000  0.7500000  )
        37           O   tau(  37) = (  0.0000000  0.2500000  0.7500000  )
        38           O   tau(  38) = (  0.5000000  0.7500000  0.7500000  )
        39           O   tau(  39) = (  0.5000000  0.2500000  0.7500000  )
        40           O   tau(  40) = (  0.0000000  0.7500000  0.2500000  )

     number of k points=     1  Methfessel-Paxton smearing, width (Ry)=  0.0100
                       cart. coord. in units 2pi/alat
        k(    1) = (   0.0000000   0.0000000   0.0000000), wk =   1.0000000

                       cryst. coord.
        k(    1) = (   0.0000000   0.0000000   0.0000000), wk =   1.0000000

     Dense  grid:   262515 G-vectors     FFT dimensions: (  80,  80,  80)

     Smooth grid:    92589 G-vectors     FFT dimensions: (  60,  60,  60)

     Dynamical RAM for                 wfc:      10.40 MB

     Dynamical RAM for     wfc (w. buffer):      31.19 MB

     Dynamical RAM for           str. fact:       4.01 MB

     Dynamical RAM for           local pot:       0.00 MB

     Dynamical RAM for          nlocal pot:      26.54 MB

     Dynamical RAM for                qrad:       5.37 MB

     Dynamical RAM for          rho,v,vnew:      11.87 MB

     Dynamical RAM for               rhoin:       3.96 MB

     Dynamical RAM for            rho*nmix:      32.05 MB

     Dynamical RAM for           G-vectors:       3.93 MB

     Dynamical RAM for          h,s,v(r/c):       0.63 MB

     Dynamical RAM for          <psi|beta>:       2.15 MB

     Dynamical RAM for      wfcinit/wfcrot:      25.76 MB

     Dynamical RAM for           addusdens:     211.30 MB

     Estimated static dynamical RAM per process >     129.77 MB

     Estimated max dynamical RAM per process >     341.07 MB

     Estimated total dynamical RAM >       1.33 GB

     Check: negative core charge=   -0.000020
     Generating pointlists ...
     new r_m :   0.1031 (alat units)  1.5380 (a.u.) for type    1
     new r_m :   0.1458 (alat units)  2.1750 (a.u.) for type    2
     new r_m :   0.1031 (alat units)  1.5380 (a.u.) for type    3
     new r_m :   0.1031 (alat units)  1.5380 (a.u.) for type    4

     Initial potential from superposition of free atoms

     starting charge  375.99958, renormalised to  392.00000

     negative rho (up, down):  1.819E-01 1.819E-01
     Starting wfcs are  272 randomized atomic wfcs

     total cpu time spent up to now is       20.9 secs

     Self-consistent Calculation

     iteration #  1     ecut=    35.00 Ry     beta= 0.40
     CG style diagonalization
     ethr =  1.00E-02,  avg # of iterations =  2.4

     negative rho (up, down):  1.676E-01 1.675E-01

     total cpu time spent up to now is       78.8 secs

     total energy              =   -4250.34555837 Ry
     estimated scf accuracy    <      31.49328843 Ry

     total magnetization       =    -0.00 Bohr mag/cell
     absolute magnetization    =    40.01 Bohr mag/cell

     iteration #  2     ecut=    35.00 Ry     beta= 0.40
     CG style diagonalization
     ethr =  8.03E-03,  avg # of iterations =  3.4

     negative rho (up, down):  1.666E-01 1.666E-01

     total cpu time spent up to now is      149.8 secs

     total energy              =   -4256.63969615 Ry
     estimated scf accuracy    <       8.80596112 Ry

     total magnetization       =    -0.00 Bohr mag/cell
     absolute magnetization    =    36.51 Bohr mag/cell

     iteration #  3     ecut=    35.00 Ry     beta= 0.40
     CG style diagonalization
     ethr =  2.25E-03,  avg # of iterations =  3.2

     negative rho (up, down):  1.633E-01 1.633E-01

     total cpu time spent up to now is      216.8 secs

     total energy              =   -4259.12624686 Ry
     estimated scf accuracy    <       2.94684369 Ry

     total magnetization       =     0.00 Bohr mag/cell
     absolute magnetization    =    35.98 Bohr mag/cell

     iteration #  4     ecut=    35.00 Ry     beta= 0.40
     CG style diagonalization
     ethr =  7.52E-04,  avg # of iterations =  3.2

     negative rho (up, down):  1.661E-01 1.661E-01

     total cpu time spent up to now is      283.8 secs

     total energy              =   -4259.51194023 Ry
     estimated scf accuracy    <       0.19621662 Ry

     total magnetization       =    -0.04 Bohr mag/cell
     absolute magnetization    =    32.38 Bohr mag/cell

     iteration #  5     ecut=    35.00 Ry     beta= 0.40
     CG style diagonalization
     c_bands:  1 eigenvalues not converged
     ethr =  5.01E-05,  avg # of iterations =  3.9

     negative rho (up, down):  1.663E-01 1.663E-01

     total cpu time spent up to now is      361.9 secs

     total energy              =   -4259.53808571 Ry
     estimated scf accuracy    <       0.23198133 Ry

     total magnetization       =     0.53 Bohr mag/cell
     absolute magnetization    =    31.36 Bohr mag/cell

     iteration #  6     ecut=    35.00 Ry     beta= 0.40
     CG style diagonalization
     ethr =  5.01E-05,  avg # of iterations =  3.2

     negative rho (up, down):  1.664E-01 1.662E-01

     total cpu time spent up to now is      428.4 secs

     total energy              =   -4259.56880439 Ry
     estimated scf accuracy    <       0.17040266 Ry

     total magnetization       =    -0.09 Bohr mag/cell
     absolute magnetization    =    30.99 Bohr mag/cell

     iteration #  7     ecut=    35.00 Ry     beta= 0.40
     CG style diagonalization
     ethr =  4.35E-05,  avg # of iterations =  3.1

     negative rho (up, down):  1.664E-01 1.662E-01

     total cpu time spent up to now is      492.8 secs

     total energy              =   -4259.58304015 Ry
     estimated scf accuracy    <       0.02947954 Ry

     total magnetization       =     0.08 Bohr mag/cell
     absolute magnetization    =    30.75 Bohr mag/cell

     iteration #  8     ecut=    35.00 Ry     beta= 0.40
     CG style diagonalization
     ethr =  7.52E-06,  avg # of iterations =  3.1

     negative rho (up, down):  1.667E-01 1.664E-01

     total cpu time spent up to now is      557.3 secs

     total energy              =   -4259.58534518 Ry
     estimated scf accuracy    <       0.00621469 Ry

     total magnetization       =     0.19 Bohr mag/cell
     absolute magnetization    =    30.76 Bohr mag/cell

     iteration #  9     ecut=    35.00 Ry     beta= 0.40
     CG style diagonalization
     ethr =  1.59E-06,  avg # of iterations =  3.2

     negative rho (up, down):  1.668E-01 1.664E-01

     total cpu time spent up to now is      624.9 secs

     total energy              =   -4259.58633326 Ry
     estimated scf accuracy    <       0.00320974 Ry

     total magnetization       =     0.10 Bohr mag/cell
     absolute magnetization    =    30.69 Bohr mag/cell

     iteration # 10     ecut=    35.00 Ry     beta= 0.40
     CG style diagonalization
     ethr =  8.19E-07,  avg # of iterations =  3.2

     negative rho (up, down):  1.669E-01 1.664E-01

     total cpu time spent up to now is      691.0 secs

     total energy              =   -4259.58624389 Ry
     estimated scf accuracy    <       0.00600940 Ry

     total magnetization       =     0.21 Bohr mag/cell
     absolute magnetization    =    30.67 Bohr mag/cell

     iteration # 11     ecut=    35.00 Ry     beta= 0.40
     CG style diagonalization
     ethr =  8.19E-07,  avg # of iterations =  3.0

     negative rho (up, down):  1.669E-01 1.664E-01

     total cpu time spent up to now is      774.5 secs

     total energy              =   -4259.58658479 Ry
     estimated scf accuracy    <       0.00015310 Ry

     total magnetization       =     0.22 Bohr mag/cell
     absolute magnetization    =    30.66 Bohr mag/cell

     iteration # 12     ecut=    35.00 Ry     beta= 0.40
     CG style diagonalization
     ethr =  3.91E-08,  avg # of iterations =  3.5

     negative rho (up, down):  1.670E-01 1.664E-01

     total cpu time spent up to now is      864.1 secs

     total energy              =   -4259.58664086 Ry
     estimated scf accuracy    <       0.00003603 Ry

     total magnetization       =     0.23 Bohr mag/cell
     absolute magnetization    =    30.65 Bohr mag/cell

     iteration # 13     ecut=    35.00 Ry     beta= 0.40
     CG style diagonalization
     ethr =  9.19E-09,  avg # of iterations =  3.6

     negative rho (up, down):  1.670E-01 1.663E-01

     total cpu time spent up to now is      957.9 secs

     total energy              =   -4259.58667210 Ry
     estimated scf accuracy    <       0.00002722 Ry

     total magnetization       =     0.29 Bohr mag/cell
     absolute magnetization    =    30.66 Bohr mag/cell

     iteration # 14     ecut=    35.00 Ry     beta= 0.40
     CG style diagonalization
     ethr =  6.94E-09,  avg # of iterations =  3.3

     negative rho (up, down):  1.671E-01 1.661E-01

     Magnetic moment per site:
     atom:    1    charge:   11.7990    magn:    0.0152    constr:    0.0000
     atom:    2    charge:   11.7990    magn:    0.0152    constr:    0.0000
     atom:    3    charge:   11.7990    magn:    0.0152    constr:    0.0000
     atom:    4    charge:   11.7990    magn:    0.0152    constr:    0.0000
     atom:    5    charge:   11.7990    magn:    0.0152    constr:    0.0000
     atom:    6    charge:   11.7990    magn:    0.0152    constr:    0.0000
     atom:    7    charge:   11.7990    magn:    0.0152    constr:    0.0000
     atom:    8    charge:   11.7990    magn:    0.0152    constr:    0.0000
     atom:    9    charge:   13.0004    magn:    3.2915    constr:    0.0000
     atom:   10    charge:   13.0004    magn:    3.2915    constr:    0.0000
     atom:   11    charge:   13.0018    magn:   -3.2863    constr:    0.0000
     atom:   12    charge:   13.0018    magn:   -3.2863    constr:    0.0000
     atom:   13    charge:   13.0004    magn:    3.2915    constr:    0.0000
     atom:   14    charge:   13.0004    magn:    3.2915    constr:    0.0000
     atom:   15    charge:   13.0018    magn:   -3.2863    constr:    0.0000
     atom:   16    charge:   13.0018    magn:   -3.2863    constr:    0.0000
     atom:   17    charge:    5.3631    magn:    0.0707    constr:    0.0000
     atom:   18    charge:    5.3621    magn:    0.0006    constr:    0.0000
     atom:   19    charge:    5.3621    magn:    0.0006    constr:    0.0000
     atom:   20    charge:    5.3631    magn:    0.0707    constr:    0.0000
     atom:   21    charge:    5.3634    magn:   -0.0683    constr:    0.0000
     atom:   22    charge:    5.3633    magn:   -0.0683    constr:    0.0000
     atom:   23    charge:    5.3630    magn:    0.0708    constr:    0.0000
     atom:   24    charge:    5.3630    magn:    0.0708    constr:    0.0000
     atom:   25    charge:    5.3633    magn:   -0.0683    constr:    0.0000
     atom:   26    charge:    5.3634    magn:   -0.0683    constr:    0.0000
     atom:   27    charge:    5.3622    magn:    0.0006    constr:    0.0000
     atom:   28    charge:    5.3621    magn:    0.0006    constr:    0.0000
     atom:   29    charge:    5.3622    magn:    0.0006    constr:    0.0000
     atom:   30    charge:    5.3621    magn:    0.0006    constr:    0.0000
     atom:   31    charge:    5.3622    magn:    0.0006    constr:    0.0000
     atom:   32    charge:    5.3621    magn:    0.0006    constr:    0.0000
     atom:   33    charge:    5.3622    magn:    0.0006    constr:    0.0000
     atom:   34    charge:    5.3622    magn:    0.0006    constr:    0.0000
     atom:   35    charge:    5.3622    magn:    0.0006    constr:    0.0000
     atom:   36    charge:    5.3621    magn:    0.0006    constr:    0.0000
     atom:   37    charge:    5.3621    magn:    0.0006    constr:    0.0000
     atom:   38    charge:    5.3622    magn:    0.0006    constr:    0.0000
     atom:   39    charge:    5.3622    magn:    0.0006    constr:    0.0000
     atom:   40    charge:    5.3621    magn:    0.0006    constr:    0.0000

     total cpu time spent up to now is     1042.9 secs

     End of self-consistent calculation

 ------ SPIN UP ------------


          k = 0.0000 0.0000 0.0000 ( 11633 PWs)   bands (ev):

   -78.5800 -78.5800 -78.5800 -78.5799 -74.1690 -74.1689 -74.1689 -74.1689
   -44.7130 -44.7129 -44.7121 -44.7119 -44.4774 -44.4773 -44.4772 -44.4772
   -44.4771 -44.4771 -44.4771 -44.4770 -40.4700 -40.4698 -40.4683 -40.4681
   -40.1684 -40.1684 -40.1683 -40.1682 -40.1682 -40.1682 -40.1681 -40.1681
   -11.6366 -11.6305 -11.6261 -11.6257 -11.6079 -11.6078 -11.6004 -11.6003
   -11.5964 -11.5932 -11.5921 -11.5920 -11.5907 -11.5907 -11.5907 -11.5906
   -11.5887 -11.5772 -11.5758 -11.5671 -11.5655 -11.5649 -11.5648 -11.5590
   -11.5576 -11.5572 -11.5572 -11.5568 -11.5564 -11.5564 -11.5558 -11.5545
   -11.5486 -11.5428 -11.5421 -11.5420 -11.5396 -11.5251 -11.5250 -11.5175
    -7.0916  -6.4224  -6.3281  -6.2914  -5.8128  -5.7905  -5.7073  -5.6510
    -5.6510  -5.6294  -5.6265  -5.5694  -5.4827  -5.4827  -5.4812  -5.4812
    -5.4633  -5.3193  -5.3193  -5.2930  -5.2685  -5.2167  -5.1815  -5.1737
     0.9121   0.9122   0.9325   1.3022   1.3149   1.3150   1.9752   2.1050
     5.1069   5.2298   5.2298   5.3504   5.3581   5.4835   5.5190   5.6469
     5.7975   6.1709   6.2321   6.3064   6.3186   6.4860   6.5452   6.5452
     6.7000   6.7051   6.9170   7.1095   7.1095   7.1155   7.1155   7.2244
     7.3294   7.3294   7.3913   7.3913   7.5160   7.5587   7.5870   7.6504
     7.6504   7.6516   7.6516   7.7002   7.7002   7.7072   7.7211   7.7768
     7.7769   7.9877   8.1804   8.3771   8.3771   8.5546   8.5546   8.6140
     8.7835   9.2062   9.2063   9.3704   9.3704   9.4002   9.5518   9.5519
     9.6881   9.7430   9.7431   9.7447   9.7525   9.7701   9.7701   9.7760
     9.8992  10.0187  10.0188  10.1276  10.1290  10.1291  10.1408  10.2154
    10.2305  10.2306  10.3417  10.3417  10.3521  10.5342  10.5342  10.6186
    10.8361  10.8361  10.8765  10.8765  10.9271  10.9539  10.9559  10.9594
    10.9987  11.1019  12.0673  12.1674  12.2085  12.2330  12.5056  12.5057
    12.5656  12.5656  12.5984  12.7440  12.9429  12.9429  12.9603  13.0547
    13.1296  13.1917  13.2371  13.2371  13.5123  13.8241  13.8681  13.9056
    14.2366  14.7499  14.7499  14.7628  14.8019  14.8499  14.8500  14.9986
    15.3177  15.3234  15.3235  15.3694  15.3926  15.3927  16.2541  16.3351
    16.5085  16.5086  16.5689

     occupation numbers 
     1.0000   1.0000   1.0000   1.0000   1.0000   1.0000   1.0000   1.0000
     1.0000   1.0000   1.0000   1.0000   1.0000   1.0000   1.0000   1.0000
     1.0000   1.0000   1.0000   1.0000   1.0000   1.0000   1.0000   1.0000
     1.0000   1.0000   1.0000   1.0000   1.0000   1.0000   1.0000   1.0000
     1.0000   1.0000   1.0000   1.0000   1.0000   1.0000   1.0000   1.0000
     1.0000   1.0000   1.0000   1.0000   1.0000   1.0000   1.0000   1.0000
     1.0000   1.0000   1.0000   1.0000   1.0000   1.0000   1.0000   1.0000
     1.0000   1.0000   1.0000   1.0000   1.0000   1.0000   1.0000   1.0000
     1.0000   1.0000   1.0000   1.0000   1.0000   1.0000   1.0000   1.0000
     1.0000   1.0000   1.0000   1.0000   1.0000   1.0000   1.0000   1.0000
     1.0000   1.0000   1.0000   1.0000   1.0000   1.0000   1.0000   1.0000
     1.0000   1.0000   1.0000   1.0000   1.0000   1.0000   1.0000   1.0000
     1.0000   1.0000   1.0000   1.0000   1.0000   1.0000   1.0000   1.0000
     1.0000   1.0000   1.0000   1.0000   1.0000   1.0000   1.0000   1.0000
     1.0000   1.0000   1.0000   1.0000   1.0000   1.0000   1.0000   1.0000
     1.0000   1.0000   1.0000   1.0000   1.0000   1.0000   1.0000   1.0000
     1.0000   1.0000   1.0000   1.0000   1.0000   1.0000   1.0000   1.0000
     1.0000   1.0000   1.0000   1.0000   1.0000   1.0000   1.0000   1.0000
     1.0000   1.0000   1.0000   1.0000   1.0000   1.0000   1.0000   1.0000
     1.0000   1.0000   1.0000   1.0000   1.0000   1.0000   1.0000   1.0000
     1.0000   1.0000   1.0000   1.0000   1.0000   1.0000   1.0000   1.0000
     1.0000   1.0000   1.0000   1.0000   1.0000   1.0000   1.0000   1.0000
     1.0000   1.0000   1.0000   1.0000   1.0000   1.0000   1.0000   1.0000
     1.0000   1.0000   1.0000   1.0000   1.0000   1.0000   1.0000   1.0000
     1.0000   1.0000   1.0040   0.6042   0.3523   0.2177  -0.0021  -0.0021
    -0.0003  -0.0003  -0.0001  -0.0000  -0.0000  -0.0000  -0.0000  -0.0000
    -0.0000  -0.0000  -0.0000  -0.0000  -0.0000  -0.0000  -0.0000  -0.0000
    -0.0000  -0.0000  -0.0000  -0.0000  -0.0000  -0.0000  -0.0000  -0.0000
    -0.0000  -0.0000  -0.0000  -0.0000  -0.0000  -0.0000  -0.0000  -0.0000
    -0.0000  -0.0000  -0.0000

 ------ SPIN DOWN ----------


          k = 0.0000 0.0000 0.0000 ( 11633 PWs)   bands (ev):

   -78.5751 -78.5751 -78.5751 -78.5750 -74.1696 -74.1696 -74.1695 -74.1695
   -44.7079 -44.7078 -44.7070 -44.7068 -44.4729 -44.4729 -44.4728 -44.4728
   -44.4727 -44.4726 -44.4726 -44.4726 -40.4699 -40.4697 -40.4682 -40.4680
   -40.1693 -40.1693 -40.1692 -40.1691 -40.1691 -40.1691 -40.1690 -40.1690
   -11.6302 -11.6261 -11.6213 -11.6192 -11.6022 -11.6021 -11.5953 -11.5945
   -11.5944 -11.5879 -11.5878 -11.5878 -11.5876 -11.5875 -11.5858 -11.5857
   -11.5850 -11.5735 -11.5712 -11.5610 -11.5608 -11.5607 -11.5594 -11.5579
   -11.5566 -11.5540 -11.5539 -11.5537 -11.5537 -11.5526 -11.5505 -11.5492
   -11.5452 -11.5418 -11.5382 -11.5381 -11.5343 -11.5217 -11.5216 -11.5142
    -7.0885  -6.4229  -6.3232  -6.2901  -5.8113  -5.7892  -5.7094  -5.6489
    -5.6489  -5.6285  -5.6253  -5.5621  -5.4811  -5.4811  -5.4800  -5.4800
    -5.4594  -5.3183  -5.3183  -5.2934  -5.2658  -5.2131  -5.1803  -5.1725
     0.9303   0.9303   0.9476   1.3202   1.3316   1.3316   1.9933   2.1228
     5.1080   5.2395   5.2395   5.3510   5.3608   5.4863   5.5224   5.6493
     5.8005   6.1736   6.2345   6.3093   6.3214   6.4897   6.5497   6.5498
     6.7048   6.7099   6.9200   7.1114   7.1114   7.1183   7.1183   7.2264
     7.3363   7.3363   7.3934   7.3934   7.5156   7.5624   7.5925   7.6525
     7.6525   7.6648   7.6648   7.7018   7.7018   7.7188   7.7341   7.7798
     7.7799   7.9919   8.1834   8.3790   8.3790   8.5597   8.5597   8.6149
     8.7869   9.2094   9.2094   9.3729   9.3729   9.4044   9.5537   9.5537
     9.6907   9.7449   9.7449   9.7492   9.7569   9.7752   9.7752   9.7771
     9.9022  10.0223  10.0223  10.1304  10.1306  10.1306  10.1412  10.2195
    10.2319  10.2319  10.3449  10.3449  10.3536  10.5346  10.5346  10.6205
    10.8370  10.8370  10.8780  10.8780  10.9279  10.9548  10.9587  10.9622
    11.0035  11.1054  12.0737  12.1976  12.2108  12.2654  12.5050  12.5050
    12.5649  12.5649  12.5979  12.7483  12.9449  12.9449  12.9598  13.0568
    13.1293  13.1908  13.2375  13.2376  13.5168  13.8476  13.8977  13.9168
    14.2384  14.7708  14.7708  14.7827  14.8256  14.8561  14.8562  15.0000
    15.3385  15.3453  15.3466  15.3958  15.4013  15.4014  16.2744  16.3409
    16.5309  16.5309  16.5766

     occupation numbers 
     1.0000   1.0000   1.0000   1.0000   1.0000   1.0000   1.0000   1.0000
     1.0000   1.0000   1.0000   1.0000   1.0000   1.0000   1.0000   1.0000
     1.0000   1.0000   1.0000   1.0000   1.0000   1.0000   1.0000   1.0000
     1.0000   1.0000   1.0000   1.0000   1.0000   1.0000   1.0000   1.0000
     1.0000   1.0000   1.0000   1.0000   1.0000   1.0000   1.0000   1.0000
     1.0000   1.0000   1.0000   1.0000   1.0000   1.0000   1.0000   1.0000
     1.0000   1.0000   1.0000   1.0000   1.0000   1.0000   1.0000   1.0000
     1.0000   1.0000   1.0000   1.0000   1.0000   1.0000   1.0000   1.0000
     1.0000   1.0000   1.0000   1.0000   1.0000   1.0000   1.0000   1.0000
     1.0000   1.0000   1.0000   1.0000   1.0000   1.0000   1.0000   1.0000
     1.0000   1.0000   1.0000   1.0000   1.0000   1.0000   1.0000   1.0000
     1.0000   1.0000   1.0000   1.0000   1.0000   1.0000   1.0000   1.0000
     1.0000   1.0000   1.0000   1.0000   1.0000   1.0000   1.0000   1.0000
     1.0000   1.0000   1.0000   1.0000   1.0000   1.0000   1.0000   1.0000
     1.0000   1.0000   1.0000   1.0000   1.0000   1.0000   1.0000   1.0000
     1.0000   1.0000   1.0000   1.0000   1.0000   1.0000   1.0000   1.0000
     1.0000   1.0000   1.0000   1.0000   1.0000   1.0000   1.0000   1.0000
     1.0000   1.0000   1.0000   1.0000   1.0000   1.0000   1.0000   1.0000
     1.0000   1.0000   1.0000   1.0000   1.0000   1.0000   1.0000   1.0000
     1.0000   1.0000   1.0000   1.0000   1.0000   1.0000   1.0000   1.0000
     1.0000   1.0000   1.0000   1.0000   1.0000   1.0000   1.0000   1.0000
     1.0000   1.0000   1.0000   1.0000   1.0000   1.0000   1.0000   1.0000
     1.0000   1.0000   1.0000   1.0000   1.0000   1.0000   1.0000   1.0000
     1.0000   1.0000   1.0000   1.0000   1.0000   1.0000   1.0000   1.0000
     1.0000   1.0000   0.9933   0.4179   0.3385   0.0819  -0.0021  -0.0021
    -0.0003  -0.0003  -0.0001  -0.0000  -0.0000  -0.0000  -0.0000  -0.0000
    -0.0000  -0.0000  -0.0000  -0.0000  -0.0000  -0.0000  -0.0000  -0.0000
    -0.0000  -0.0000  -0.0000  -0.0000  -0.0000  -0.0000  -0.0000  -0.0000
    -0.0000  -0.0000  -0.0000  -0.0000  -0.0000  -0.0000  -0.0000  -0.0000
    -0.0000  -0.0000  -0.0000

     the Fermi energy is    12.1843 ev

!    total energy              =   -4259.58670461 Ry
     estimated scf accuracy    <       0.00000718 Ry
     smearing contrib. (-TS)   =      -0.00564837 Ry
     internal energy E=F+TS    =   -4259.58105624 Ry

     The total energy is F=E-TS. E is the sum of the following terms:
     one-electron contribution =   -1694.04893402 Ry
     hartree contribution      =    1096.76010589 Ry
     xc contribution           =    -924.68845360 Ry
     ewald contribution        =   -2737.60377451 Ry

     total magnetization       =     0.35 Bohr mag/cell
     absolute magnetization    =    30.67 Bohr mag/cell

     convergence has been achieved in  14 iterations

     Writing output data file /home/aldair1809/Documentos/QE/4BFO/temp/bifeo3.save/

     init_run     :     19.58s CPU     20.55s WALL (       1 calls)
     electrons    :    993.46s CPU   1022.08s WALL (       1 calls)

     Called by init_run:
     wfcinit      :     15.28s CPU     15.43s WALL (       1 calls)
     wfcinit:atom :      0.02s CPU      0.02s WALL (       2 calls)
     wfcinit:wfcr :     15.12s CPU     15.23s WALL (       2 calls)
     potinit      :      0.44s CPU      0.50s WALL (       1 calls)
     hinit0       :      0.57s CPU      0.59s WALL (       1 calls)

     Called by electrons:
     c_bands      :    784.71s CPU    791.59s WALL (      14 calls)
     sum_band     :    154.70s CPU    166.18s WALL (      14 calls)
     v_of_rho     :      5.32s CPU      5.51s WALL (      15 calls)
     v_h          :      0.21s CPU      0.22s WALL (      15 calls)
     v_xc         :      5.11s CPU      5.29s WALL (      15 calls)
     newd         :     50.65s CPU     61.39s WALL (      15 calls)
     mix_rho      :      1.00s CPU      1.03s WALL (      14 calls)

     Called by c_bands:
     init_us_2    :      0.98s CPU      1.01s WALL (      58 calls)
     ccgdiagg     :    605.42s CPU    611.29s WALL (      28 calls)
     wfcrot       :    193.58s CPU    194.70s WALL (      28 calls)

     Called by sum_band:
     sum_band:wei :      0.02s CPU      0.02s WALL (      14 calls)
     sum_band:loo :     51.19s CPU     51.77s WALL (      14 calls)
     sum_band:buf :      0.17s CPU      0.17s WALL (      28 calls)
     sum_band:ini :      0.48s CPU      0.48s WALL (      28 calls)
     sum_band:cal :     40.02s CPU     40.10s WALL (      28 calls)
     sum_band:bec :      0.23s CPU      0.23s WALL (      28 calls)
     addusdens    :    101.69s CPU    112.55s WALL (      14 calls)
     addusd:skk   :      0.26s CPU      0.28s WALL (      56 calls)
     addusd:dgemm :     68.08s CPU     76.93s WALL (     112 calls)
     addusd:qvan2 :     32.86s CPU     32.95s WALL (     112 calls)

     Called by *cgdiagg:
     h_psi        :    348.74s CPU    353.55s WALL (   15208 calls)
     s_psi        :    239.00s CPU    239.93s WALL (   30388 calls)

     Called by h_psi:
     h_psi:calbec :    140.90s CPU    142.38s WALL (   15208 calls)
     vloc_psi     :     64.72s CPU     67.65s WALL (   15208 calls)
     add_vuspsi   :    142.55s CPU    142.98s WALL (   15208 calls)
     hs_1psi      :    343.01s CPU    347.28s WALL (   15180 calls)
     s_1psi       :    196.21s CPU    197.30s WALL (   15180 calls)

     General routines
     calbec       :    278.94s CPU    281.29s WALL (   30416 calls)
     fft          :      3.83s CPU      4.09s WALL (     369 calls)
     ffts         :      0.14s CPU      0.15s WALL (      58 calls)
     fftw         :     62.30s CPU     65.46s WALL (   50248 calls)
     interpolate  :      0.44s CPU      0.47s WALL (      30 calls)

     Parallel routines
     fft_scatt_xy :     10.80s CPU     11.43s WALL (   50675 calls)
     fft_scatt_yz :     12.47s CPU     13.71s WALL (   50675 calls)

     PWSCF        :  16m53.48s CPU  17m23.30s WALL


   This run was terminated on:  13:52:19  24Oct2024            

=------------------------------------------------------------------------------=
   JOB DONE.
=------------------------------------------------------------------------------=
