
     Program PWSCF v.6.7MaX starts on 24Oct2024 at 13:52:19 

     This program is part of the open-source Quantum ESPRESSO suite
     for quantum simulation of materials; please cite
         "P. Giannozzi et al., J. Phys.:Condens. Matter 21 395502 (2009);
         "P. Giannozzi et al., J. Phys.:Condens. Matter 29 465901 (2017);
          URL http://www.quantum-espresso.org", 
     in publications or presentations arising from this work. More details at
     http://www.quantum-espresso.org/quote

     Parallel version (MPI), running on     4 processors

     MPI processes distributed on     1 nodes
     R & G space division:  proc/nbgrp/npool/nimage =       4
     Waiting for input...
     Reading input from standard input

     Current dimensions of program PWSCF are:
     Max number of different atomic species (ntypx) = 10
     Max number of k-points (npk) =  40000
     Max angular momentum in pseudopotentials (lmaxx) =  3
     Message from routine iosys:
     wrong startingpot: use default (1)

     Subspace diagonalization in iterative solution of the eigenvalue problem:
     one sub-group per band group will be used
     scalapack distributed-memory algorithm (size of sub-group:  2*  2 procs)

     Found symmetry operation: I + ( -0.5000 -0.5000  0.0000)
     This is a supercell, fractional translations are disabled

     Parallelization info
     --------------------
     sticks:   dense  smooth     PW     G-vecs:    dense   smooth      PW
     Min        1417     708    175                80115    28342    3536
     Max        1419     710    179                80116    28343    3537
     Sum        5673    2837    709               320461   113369   14147



     bravais-lattice index     =            1
     lattice parameter (alat)  =      14.9137  a.u.
     unit-cell volume          =    3317.0944 (a.u.)^3
     number of atoms/cell      =           40
     number of atomic types    =            4
     number of electrons       =       392.00
     number of Kohn-Sham states=          235
     kinetic-energy cutoff     =      40.0000  Ry
     charge density cutoff     =     320.0000  Ry
     scf convergence threshold =      1.0E-05
     mixing beta               =       0.4000
     number of iterations used =            8  plain     mixing
     Exchange-correlation=  SLA  PW   PBX  PBC
                           (   1   4   3   4   0   0   0)

     celldm(1)=  14.913719  celldm(2)=   0.000000  celldm(3)=   0.000000
     celldm(4)=   0.000000  celldm(5)=   0.000000  celldm(6)=   0.000000

     crystal axes: (cart. coord. in units of alat)
               a(1) = (   1.000000   0.000000   0.000000 )  
               a(2) = (   0.000000   1.000000   0.000000 )  
               a(3) = (   0.000000   0.000000   1.000000 )  

     reciprocal axes: (cart. coord. in units 2 pi/alat)
               b(1) = (  1.000000  0.000000  0.000000 )  
               b(2) = (  0.000000  1.000000  0.000000 )  
               b(3) = (  0.000000  0.000000  1.000000 )  


     PseudoPot. # 1 for O  read from file:
     /home/aldair1809/Programas/QE/q-e-qe-7.3/pseudo/o_pbe_v1.2.uspp.F.UPF
     MD5 check sum: 734c27235a0248c51dbae37a1fbe46ec
     Pseudo is Ultrasoft + core correction, Zval =  6.0
     Generated by new atomic code, or converted to UPF format
     Using radial grid of  737 points,  5 beta functions with: 
                l(1) =   0
                l(2) =   0
                l(3) =   1
                l(4) =   1
                l(5) =   2
     Q(r) pseudized with  8 coefficients,  rinner =    0.900   0.900   0.900
                                                       0.900   0.900

     PseudoPot. # 2 for Bi read from file:
     /home/aldair1809/Programas/QE/q-e-qe-7.3/pseudo/bi_pbe_v1.uspp.F.UPF
     MD5 check sum: cceb9f28ec65b6d7ff33140f5b0b1758
     Pseudo is Ultrasoft + core correction, Zval = 15.0
     Generated by new atomic code, or converted to UPF format
     Using radial grid of  899 points,  6 beta functions with: 
                l(1) =   0
                l(2) =   0
                l(3) =   1
                l(4) =   1
                l(5) =   2
                l(6) =   2
     Q(r) pseudized with  6 coefficients,  rinner =    1.000   1.000   1.000
                                                       1.000   1.000

     PseudoPot. # 3 for Fe read from file:
     /home/aldair1809/Programas/QE/q-e-qe-7.3/pseudo/fe_pbe_v1.5.uspp.F.UPF
     MD5 check sum: a130daea23fe5165f5d574ae7f82ed95
     Pseudo is Ultrasoft + core correction, Zval = 16.0
     Generated by new atomic code, or converted to UPF format
     Using radial grid of  861 points,  6 beta functions with: 
                l(1) =   0
                l(2) =   0
                l(3) =   1
                l(4) =   1
                l(5) =   2
                l(6) =   2
     Q(r) pseudized with  8 coefficients,  rinner =    1.000   1.000   1.000
                                                       1.000   1.000

     PseudoPot. # 4 for Fe read from file:
     /home/aldair1809/Programas/QE/q-e-qe-7.3/pseudo/fe_pbe_v1.5.uspp.F.UPF
     MD5 check sum: a130daea23fe5165f5d574ae7f82ed95
     Pseudo is Ultrasoft + core correction, Zval = 16.0
     Generated by new atomic code, or converted to UPF format
     Using radial grid of  861 points,  6 beta functions with: 
                l(1) =   0
                l(2) =   0
                l(3) =   1
                l(4) =   1
                l(5) =   2
                l(6) =   2
     Q(r) pseudized with  8 coefficients,  rinner =    1.000   1.000   1.000
                                                       1.000   1.000

     atomic species   valence    mass     pseudopotential
        O              6.00    15.99940     O ( 1.00)
        Bi            15.00   208.98040     Bi( 1.00)
        Fe1           16.00    55.84500     Fe( 1.00)
        Fe2           16.00    55.84500     Fe( 1.00)

     Starting magnetic structure 
     atomic species   magnetization
        O            0.000
        Bi           0.000
        Fe1         -0.800
        Fe2          0.800

      8 Sym. Ops., with inversion, found


                                    s                        frac. trans.

      isym =  1     identity                                     

 cryst.   s( 1) = (     1          0          0      )
                  (     0          1          0      )
                  (     0          0          1      )

 cart.    s( 1) = (  1.0000000  0.0000000  0.0000000 )
                  (  0.0000000  1.0000000  0.0000000 )
                  (  0.0000000  0.0000000  1.0000000 )


      isym =  2     180 deg rotation - cart. axis [0,0,1]        

 cryst.   s( 2) = (    -1          0          0      )
                  (     0         -1          0      )
                  (     0          0          1      )

 cart.    s( 2) = ( -1.0000000  0.0000000  0.0000000 )
                  (  0.0000000 -1.0000000  0.0000000 )
                  (  0.0000000  0.0000000  1.0000000 )


      isym =  3     180 deg rotation - cart. axis [1,1,0]        

 cryst.   s( 3) = (     0          1          0      )
                  (     1          0          0      )
                  (     0          0         -1      )

 cart.    s( 3) = (  0.0000000  1.0000000  0.0000000 )
                  (  1.0000000  0.0000000  0.0000000 )
                  (  0.0000000  0.0000000 -1.0000000 )


      isym =  4     180 deg rotation - cart. axis [1,-1,0]       

 cryst.   s( 4) = (     0         -1          0      )
                  (    -1          0          0      )
                  (     0          0         -1      )

 cart.    s( 4) = (  0.0000000 -1.0000000  0.0000000 )
                  ( -1.0000000  0.0000000  0.0000000 )
                  (  0.0000000  0.0000000 -1.0000000 )


      isym =  5     inversion                                    

 cryst.   s( 5) = (    -1          0          0      )
                  (     0         -1          0      )
                  (     0          0         -1      )

 cart.    s( 5) = ( -1.0000000  0.0000000  0.0000000 )
                  (  0.0000000 -1.0000000  0.0000000 )
                  (  0.0000000  0.0000000 -1.0000000 )


      isym =  6     inv. 180 deg rotation - cart. axis [0,0,1]   

 cryst.   s( 6) = (     1          0          0      )
                  (     0          1          0      )
                  (     0          0         -1      )

 cart.    s( 6) = (  1.0000000  0.0000000  0.0000000 )
                  (  0.0000000  1.0000000  0.0000000 )
                  (  0.0000000  0.0000000 -1.0000000 )


      isym =  7     inv. 180 deg rotation - cart. axis [1,1,0]   

 cryst.   s( 7) = (     0         -1          0      )
                  (    -1          0          0      )
                  (     0          0          1      )

 cart.    s( 7) = (  0.0000000 -1.0000000  0.0000000 )
                  ( -1.0000000  0.0000000  0.0000000 )
                  (  0.0000000  0.0000000  1.0000000 )


      isym =  8     inv. 180 deg rotation - cart. axis [1,-1,0]  

 cryst.   s( 8) = (     0          1          0      )
                  (     1          0          0      )
                  (     0          0          1      )

 cart.    s( 8) = (  0.0000000  1.0000000  0.0000000 )
                  (  1.0000000  0.0000000  0.0000000 )
                  (  0.0000000  0.0000000  1.0000000 )


     point group D_2h (mmm) 
     there are  8 classes
     the character table:

       E     C2    C2'   C2''  i     s_v   s_v'  s_v''
A_g    1.00  1.00  1.00  1.00  1.00  1.00  1.00  1.00
B_1g   1.00  1.00 -1.00 -1.00  1.00  1.00 -1.00 -1.00
B_2g   1.00 -1.00  1.00 -1.00  1.00 -1.00  1.00 -1.00
B_3g   1.00 -1.00 -1.00  1.00  1.00 -1.00 -1.00  1.00
A_u    1.00  1.00  1.00  1.00 -1.00 -1.00 -1.00 -1.00
B_1u   1.00  1.00 -1.00 -1.00 -1.00 -1.00  1.00  1.00
B_2u   1.00 -1.00  1.00 -1.00 -1.00  1.00 -1.00  1.00
B_3u   1.00 -1.00 -1.00  1.00 -1.00  1.00  1.00 -1.00

     the symmetry operations in each class and the name of the first element:

     E        1
          identity                                               
     C2       2
          180 deg rotation - cart. axis [0,0,1]                  
     C2'      4
          180 deg rotation - cart. axis [1,-1,0]                 
     C2''     3
          180 deg rotation - cart. axis [1,1,0]                  
     i        5
          inversion                                              
     s_v      6
          inv. 180 deg rotation - cart. axis [0,0,1]             
     s_v'     8
          inv. 180 deg rotation - cart. axis [1,-1,0]            
     s_v''    7
          inv. 180 deg rotation - cart. axis [1,1,0]             

   Cartesian axes

     site n.     atom                  positions (alat units)
         1           Bi  tau(   1) = (   0.0000000   0.0000000   0.0000000  )
         2           Bi  tau(   2) = (   0.5000000   0.5000000   0.0000000  )
         3           Bi  tau(   3) = (   0.5000000   0.0000000   0.0000000  )
         4           Bi  tau(   4) = (   0.0000000   0.5000000   0.5000000  )
         5           Bi  tau(   5) = (   0.0000000   0.0000000   0.5000000  )
         6           Bi  tau(   6) = (   0.5000000   0.5000000   0.5000000  )
         7           Bi  tau(   7) = (   0.5000000   0.0000000   0.5000000  )
         8           Bi  tau(   8) = (   0.0000000   0.5000000   0.0000000  )
         9           Fe2 tau(   9) = (   0.2500000   0.2500000   0.2500000  )
        10           Fe2 tau(  10) = (   0.7500000   0.7500000   0.2500000  )
        11           Fe1 tau(  11) = (   0.7500000   0.2500000   0.2500000  )
        12           Fe1 tau(  12) = (   0.2500000   0.7500000   0.7500000  )
        13           Fe2 tau(  13) = (   0.2500000   0.2500000   0.7500000  )
        14           Fe2 tau(  14) = (   0.7500000   0.7500000   0.7500000  )
        15           Fe1 tau(  15) = (   0.7500000   0.2500000   0.7500000  )
        16           Fe1 tau(  16) = (   0.2500000   0.7500000   0.2500000  )
        17           O   tau(  17) = (   0.2500000   0.2500000   0.0000000  )
        18           O   tau(  18) = (   0.2500000   0.0000000   0.2500000  )
        19           O   tau(  19) = (   0.0000000   0.2500000   0.2500000  )
        20           O   tau(  20) = (   0.7500000   0.7500000   0.0000000  )
        21           O   tau(  21) = (   0.7500000   0.2500000   0.0000000  )
        22           O   tau(  22) = (   0.2500000   0.7500000   0.5000000  )
        23           O   tau(  23) = (   0.2500000   0.2500000   0.5000000  )
        24           O   tau(  24) = (   0.7500000   0.7500000   0.5000000  )
        25           O   tau(  25) = (   0.7500000   0.2500000   0.5000000  )
        26           O   tau(  26) = (   0.2500000   0.7500000   0.0000000  )
        27           O   tau(  27) = (   0.7500000   0.5000000   0.2500000  )
        28           O   tau(  28) = (   0.7500000   0.0000000   0.2500000  )
        29           O   tau(  29) = (   0.2500000   0.5000000   0.7500000  )
        30           O   tau(  30) = (   0.2500000   0.0000000   0.7500000  )
        31           O   tau(  31) = (   0.7500000   0.5000000   0.7500000  )
        32           O   tau(  32) = (   0.7500000   0.0000000   0.7500000  )
        33           O   tau(  33) = (   0.2500000   0.5000000   0.2500000  )
        34           O   tau(  34) = (   0.5000000   0.7500000   0.2500000  )
        35           O   tau(  35) = (   0.5000000   0.2500000   0.2500000  )
        36           O   tau(  36) = (   0.0000000   0.7500000   0.7500000  )
        37           O   tau(  37) = (   0.0000000   0.2500000   0.7500000  )
        38           O   tau(  38) = (   0.5000000   0.7500000   0.7500000  )
        39           O   tau(  39) = (   0.5000000   0.2500000   0.7500000  )
        40           O   tau(  40) = (   0.0000000   0.7500000   0.2500000  )

   Crystallographic axes

     site n.     atom                  positions (cryst. coord.)
         1           Bi  tau(   1) = (  0.0000000  0.0000000  0.0000000  )
         2           Bi  tau(   2) = (  0.5000000  0.5000000  0.0000000  )
         3           Bi  tau(   3) = (  0.5000000  0.0000000  0.0000000  )
         4           Bi  tau(   4) = (  0.0000000  0.5000000  0.5000000  )
         5           Bi  tau(   5) = (  0.0000000  0.0000000  0.5000000  )
         6           Bi  tau(   6) = (  0.5000000  0.5000000  0.5000000  )
         7           Bi  tau(   7) = (  0.5000000  0.0000000  0.5000000  )
         8           Bi  tau(   8) = (  0.0000000  0.5000000  0.0000000  )
         9           Fe2 tau(   9) = (  0.2500000  0.2500000  0.2500000  )
        10           Fe2 tau(  10) = (  0.7500000  0.7500000  0.2500000  )
        11           Fe1 tau(  11) = (  0.7500000  0.2500000  0.2500000  )
        12           Fe1 tau(  12) = (  0.2500000  0.7500000  0.7500000  )
        13           Fe2 tau(  13) = (  0.2500000  0.2500000  0.7500000  )
        14           Fe2 tau(  14) = (  0.7500000  0.7500000  0.7500000  )
        15           Fe1 tau(  15) = (  0.7500000  0.2500000  0.7500000  )
        16           Fe1 tau(  16) = (  0.2500000  0.7500000  0.2500000  )
        17           O   tau(  17) = (  0.2500000  0.2500000  0.0000000  )
        18           O   tau(  18) = (  0.2500000  0.0000000  0.2500000  )
        19           O   tau(  19) = (  0.0000000  0.2500000  0.2500000  )
        20           O   tau(  20) = (  0.7500000  0.7500000  0.0000000  )
        21           O   tau(  21) = (  0.7500000  0.2500000  0.0000000  )
        22           O   tau(  22) = (  0.2500000  0.7500000  0.5000000  )
        23           O   tau(  23) = (  0.2500000  0.2500000  0.5000000  )
        24           O   tau(  24) = (  0.7500000  0.7500000  0.5000000  )
        25           O   tau(  25) = (  0.7500000  0.2500000  0.5000000  )
        26           O   tau(  26) = (  0.2500000  0.7500000  0.0000000  )
        27           O   tau(  27) = (  0.7500000  0.5000000  0.2500000  )
        28           O   tau(  28) = (  0.7500000  0.0000000  0.2500000  )
        29           O   tau(  29) = (  0.2500000  0.5000000  0.7500000  )
        30           O   tau(  30) = (  0.2500000  0.0000000  0.7500000  )
        31           O   tau(  31) = (  0.7500000  0.5000000  0.7500000  )
        32           O   tau(  32) = (  0.7500000  0.0000000  0.7500000  )
        33           O   tau(  33) = (  0.2500000  0.5000000  0.2500000  )
        34           O   tau(  34) = (  0.5000000  0.7500000  0.2500000  )
        35           O   tau(  35) = (  0.5000000  0.2500000  0.2500000  )
        36           O   tau(  36) = (  0.0000000  0.7500000  0.7500000  )
        37           O   tau(  37) = (  0.0000000  0.2500000  0.7500000  )
        38           O   tau(  38) = (  0.5000000  0.7500000  0.7500000  )
        39           O   tau(  39) = (  0.5000000  0.2500000  0.7500000  )
        40           O   tau(  40) = (  0.0000000  0.7500000  0.2500000  )

     number of k points=     1  Methfessel-Paxton smearing, width (Ry)=  0.0100
                       cart. coord. in units 2pi/alat
        k(    1) = (   0.0000000   0.0000000   0.0000000), wk =   1.0000000

                       cryst. coord.
        k(    1) = (   0.0000000   0.0000000   0.0000000), wk =   1.0000000

     Dense  grid:   320461 G-vectors     FFT dimensions: (  90,  90,  90)

     Smooth grid:   113369 G-vectors     FFT dimensions: (  64,  64,  64)

     Dynamical RAM for                 wfc:      12.70 MB

     Dynamical RAM for     wfc (w. buffer):      38.10 MB

     Dynamical RAM for           str. fact:       4.89 MB

     Dynamical RAM for           local pot:       0.00 MB

     Dynamical RAM for          nlocal pot:      32.43 MB

     Dynamical RAM for                qrad:       5.74 MB

     Dynamical RAM for          rho,v,vnew:      15.86 MB

     Dynamical RAM for               rhoin:       5.29 MB

     Dynamical RAM for            rho*nmix:      39.12 MB

     Dynamical RAM for           G-vectors:       4.80 MB

     Dynamical RAM for          h,s,v(r/c):       0.63 MB

     Dynamical RAM for          <psi|beta>:       2.15 MB

     Dynamical RAM for      wfcinit/wfcrot:      31.10 MB

     Dynamical RAM for           addusdens:     257.94 MB

     Estimated static dynamical RAM per process >     160.87 MB

     Estimated max dynamical RAM per process >     418.82 MB

     Estimated total dynamical RAM >       1.64 GB

     Check: negative core charge=   -0.000014
     Generating pointlists ...
     new r_m :   0.1031 (alat units)  1.5380 (a.u.) for type    1
     new r_m :   0.1458 (alat units)  2.1750 (a.u.) for type    2
     new r_m :   0.1031 (alat units)  1.5380 (a.u.) for type    3
     new r_m :   0.1031 (alat units)  1.5380 (a.u.) for type    4

     Initial potential from superposition of free atoms

     starting charge  375.99958, renormalised to  392.00000

     negative rho (up, down):  1.755E-01 1.755E-01
     Starting wfcs are  272 randomized atomic wfcs

     total cpu time spent up to now is       31.7 secs

     Self-consistent Calculation

     iteration #  1     ecut=    40.00 Ry     beta= 0.40
     CG style diagonalization
     ethr =  1.00E-02,  avg # of iterations =  2.4

     negative rho (up, down):  1.623E-01 1.623E-01

     total cpu time spent up to now is      127.5 secs

     total energy              =   -4250.36698758 Ry
     estimated scf accuracy    <      31.52476130 Ry

     total magnetization       =     0.00 Bohr mag/cell
     absolute magnetization    =    40.01 Bohr mag/cell

     iteration #  2     ecut=    40.00 Ry     beta= 0.40
     CG style diagonalization
     ethr =  8.04E-03,  avg # of iterations =  3.4

     negative rho (up, down):  1.615E-01 1.615E-01

     total cpu time spent up to now is      236.6 secs

     total energy              =   -4256.66148109 Ry
     estimated scf accuracy    <       8.83760760 Ry

     total magnetization       =     0.00 Bohr mag/cell
     absolute magnetization    =    36.47 Bohr mag/cell

     iteration #  3     ecut=    40.00 Ry     beta= 0.40
     CG style diagonalization
     ethr =  2.25E-03,  avg # of iterations =  3.2

     negative rho (up, down):  1.589E-01 1.589E-01

     total cpu time spent up to now is      341.3 secs

     total energy              =   -4259.16615502 Ry
     estimated scf accuracy    <       2.95484705 Ry

     total magnetization       =    -0.01 Bohr mag/cell
     absolute magnetization    =    35.91 Bohr mag/cell

     iteration #  4     ecut=    40.00 Ry     beta= 0.40
     CG style diagonalization
     ethr =  7.54E-04,  avg # of iterations =  3.2

     negative rho (up, down):  1.613E-01 1.613E-01

     total cpu time spent up to now is      447.2 secs

     total energy              =   -4259.54156387 Ry
     estimated scf accuracy    <       0.18922801 Ry

     total magnetization       =     0.11 Bohr mag/cell
     absolute magnetization    =    32.45 Bohr mag/cell

     iteration #  5     ecut=    40.00 Ry     beta= 0.40
     CG style diagonalization
     ethr =  4.83E-05,  avg # of iterations =  3.8

     negative rho (up, down):  1.618E-01 1.618E-01

     total cpu time spent up to now is      571.5 secs

     total energy              =   -4259.57266921 Ry
     estimated scf accuracy    <       0.34830444 Ry

     total magnetization       =    -1.05 Bohr mag/cell
     absolute magnetization    =    31.82 Bohr mag/cell

     iteration #  6     ecut=    40.00 Ry     beta= 0.40
     CG style diagonalization
     ethr =  4.83E-05,  avg # of iterations =  3.2

     negative rho (up, down):  1.618E-01 1.617E-01

     total cpu time spent up to now is      679.8 secs

     total energy              =   -4259.61741563 Ry
     estimated scf accuracy    <       0.04975867 Ry

     total magnetization       =     0.62 Bohr mag/cell
     absolute magnetization    =    31.08 Bohr mag/cell

     iteration #  7     ecut=    40.00 Ry     beta= 0.40
     CG style diagonalization
     c_bands:  1 eigenvalues not converged
     ethr =  1.27E-05,  avg # of iterations =  3.2

     negative rho (up, down):  1.619E-01 1.618E-01

     total cpu time spent up to now is      801.3 secs

     total energy              =   -4259.61893712 Ry
     estimated scf accuracy    <       0.04333255 Ry

     total magnetization       =     0.14 Bohr mag/cell
     absolute magnetization    =    30.90 Bohr mag/cell

     iteration #  8     ecut=    40.00 Ry     beta= 0.40
     CG style diagonalization
     ethr =  1.11E-05,  avg # of iterations =  3.1

     negative rho (up, down):  1.619E-01 1.617E-01

     total cpu time spent up to now is      907.6 secs

     total energy              =   -4259.62257668 Ry
     estimated scf accuracy    <       0.03111754 Ry

     total magnetization       =     0.03 Bohr mag/cell
     absolute magnetization    =    30.68 Bohr mag/cell

     iteration #  9     ecut=    40.00 Ry     beta= 0.40
     CG style diagonalization
     ethr =  7.94E-06,  avg # of iterations =  3.0

     negative rho (up, down):  1.620E-01 1.618E-01

     total cpu time spent up to now is      990.8 secs

     total energy              =   -4259.62532014 Ry
     estimated scf accuracy    <       0.00434019 Ry

     total magnetization       =     0.20 Bohr mag/cell
     absolute magnetization    =    30.72 Bohr mag/cell

     iteration # 10     ecut=    40.00 Ry     beta= 0.40
     CG style diagonalization
     ethr =  1.11E-06,  avg # of iterations =  3.1

     negative rho (up, down):  1.621E-01 1.618E-01

     total cpu time spent up to now is     1073.7 secs

     total energy              =   -4259.62584514 Ry
     estimated scf accuracy    <       0.00229287 Ry

     total magnetization       =     0.11 Bohr mag/cell
     absolute magnetization    =    30.68 Bohr mag/cell

     iteration # 11     ecut=    40.00 Ry     beta= 0.40
     CG style diagonalization
     ethr =  5.85E-07,  avg # of iterations =  3.0

     negative rho (up, down):  1.621E-01 1.618E-01

     total cpu time spent up to now is     1154.5 secs

     total energy              =   -4259.62585329 Ry
     estimated scf accuracy    <       0.00123390 Ry

     total magnetization       =     0.13 Bohr mag/cell
     absolute magnetization    =    30.66 Bohr mag/cell

     iteration # 12     ecut=    40.00 Ry     beta= 0.40
     CG style diagonalization
     ethr =  3.15E-07,  avg # of iterations =  3.0

     negative rho (up, down):  1.621E-01 1.618E-01

     total cpu time spent up to now is     1235.6 secs

     total energy              =   -4259.62593663 Ry
     estimated scf accuracy    <       0.00007804 Ry

     total magnetization       =     0.17 Bohr mag/cell
     absolute magnetization    =    30.65 Bohr mag/cell

     iteration # 13     ecut=    40.00 Ry     beta= 0.40
     CG style diagonalization
     ethr =  1.99E-08,  avg # of iterations =  3.6

     negative rho (up, down):  1.622E-01 1.618E-01

     total cpu time spent up to now is     1329.4 secs

     total energy              =   -4259.62597647 Ry
     estimated scf accuracy    <       0.00002060 Ry

     total magnetization       =     0.18 Bohr mag/cell
     absolute magnetization    =    30.65 Bohr mag/cell

     iteration # 14     ecut=    40.00 Ry     beta= 0.40
     CG style diagonalization
     ethr =  5.26E-09,  avg # of iterations =  3.5

     negative rho (up, down):  1.623E-01 1.617E-01

     Magnetic moment per site:
     atom:    1    charge:   11.7996    magn:    0.0100    constr:    0.0000
     atom:    2    charge:   11.7996    magn:    0.0100    constr:    0.0000
     atom:    3    charge:   11.7996    magn:    0.0100    constr:    0.0000
     atom:    4    charge:   11.7996    magn:    0.0100    constr:    0.0000
     atom:    5    charge:   11.7995    magn:    0.0100    constr:    0.0000
     atom:    6    charge:   11.7995    magn:    0.0100    constr:    0.0000
     atom:    7    charge:   11.7996    magn:    0.0100    constr:    0.0000
     atom:    8    charge:   11.7996    magn:    0.0100    constr:    0.0000
     atom:    9    charge:   12.9997    magn:    3.2905    constr:    0.0000
     atom:   10    charge:   12.9997    magn:    3.2905    constr:    0.0000
     atom:   11    charge:   13.0000    magn:   -3.2868    constr:    0.0000
     atom:   12    charge:   13.0000    magn:   -3.2868    constr:    0.0000
     atom:   13    charge:   12.9997    magn:    3.2905    constr:    0.0000
     atom:   14    charge:   12.9997    magn:    3.2905    constr:    0.0000
     atom:   15    charge:   13.0000    magn:   -3.2868    constr:    0.0000
     atom:   16    charge:   13.0000    magn:   -3.2868    constr:    0.0000
     atom:   17    charge:    5.3622    magn:    0.0703    constr:    0.0000
     atom:   18    charge:    5.3610    magn:    0.0005    constr:    0.0000
     atom:   19    charge:    5.3610    magn:    0.0005    constr:    0.0000
     atom:   20    charge:    5.3622    magn:    0.0703    constr:    0.0000
     atom:   21    charge:    5.3622    magn:   -0.0688    constr:    0.0000
     atom:   22    charge:    5.3620    magn:   -0.0687    constr:    0.0000
     atom:   23    charge:    5.3621    magn:    0.0704    constr:    0.0000
     atom:   24    charge:    5.3621    magn:    0.0704    constr:    0.0000
     atom:   25    charge:    5.3620    magn:   -0.0687    constr:    0.0000
     atom:   26    charge:    5.3622    magn:   -0.0688    constr:    0.0000
     atom:   27    charge:    5.3610    magn:    0.0005    constr:    0.0000
     atom:   28    charge:    5.3610    magn:    0.0005    constr:    0.0000
     atom:   29    charge:    5.3610    magn:    0.0005    constr:    0.0000
     atom:   30    charge:    5.3610    magn:    0.0005    constr:    0.0000
     atom:   31    charge:    5.3610    magn:    0.0005    constr:    0.0000
     atom:   32    charge:    5.3610    magn:    0.0005    constr:    0.0000
     atom:   33    charge:    5.3610    magn:    0.0005    constr:    0.0000
     atom:   34    charge:    5.3610    magn:    0.0005    constr:    0.0000
     atom:   35    charge:    5.3610    magn:    0.0005    constr:    0.0000
     atom:   36    charge:    5.3610    magn:    0.0005    constr:    0.0000
     atom:   37    charge:    5.3610    magn:    0.0005    constr:    0.0000
     atom:   38    charge:    5.3610    magn:    0.0005    constr:    0.0000
     atom:   39    charge:    5.3610    magn:    0.0005    constr:    0.0000
     atom:   40    charge:    5.3610    magn:    0.0005    constr:    0.0000

     total cpu time spent up to now is     1421.3 secs

     End of self-consistent calculation

 ------ SPIN UP ------------


          k = 0.0000 0.0000 0.0000 ( 14147 PWs)   bands (ev):

   -78.5787 -78.5787 -78.5786 -78.5786 -74.1644 -74.1643 -74.1643 -74.1643
   -44.7124 -44.7124 -44.7115 -44.7115 -44.4766 -44.4766 -44.4765 -44.4765
   -44.4765 -44.4765 -44.4764 -44.4764 -40.4657 -40.4657 -40.4640 -40.4640
   -40.1650 -40.1650 -40.1649 -40.1649 -40.1648 -40.1648 -40.1647 -40.1647
   -11.6378 -11.6317 -11.6268 -11.6267 -11.6089 -11.6088 -11.6012 -11.6011
   -11.5983 -11.5940 -11.5930 -11.5930 -11.5917 -11.5917 -11.5910 -11.5909
   -11.5903 -11.5788 -11.5771 -11.5670 -11.5660 -11.5659 -11.5652 -11.5606
   -11.5588 -11.5582 -11.5582 -11.5580 -11.5572 -11.5572 -11.5563 -11.5546
   -11.5497 -11.5449 -11.5434 -11.5434 -11.5407 -11.5254 -11.5253 -11.5178
    -7.0889  -6.4203  -6.3245  -6.2885  -5.8102  -5.7878  -5.7054  -5.6478
    -5.6478  -5.6264  -5.6234  -5.5649  -5.4793  -5.4793  -5.4779  -5.4779
    -5.4597  -5.3161  -5.3161  -5.2903  -5.2650  -5.2129  -5.1781  -5.1704
     0.9151   0.9151   0.9349   1.3057   1.3181   1.3182   1.9781   2.1085
     5.1077   5.2315   5.2315   5.3499   5.3587   5.4836   5.5197   5.6474
     5.7984   6.1719   6.2327   6.3073   6.3193   6.4870   6.5464   6.5464
     6.7023   6.7073   6.9171   7.1090   7.1090   7.1158   7.1158   7.2240
     7.3311   7.3311   7.3910   7.3910   7.5167   7.5579   7.5897   7.6520
     7.6520   7.6545   7.6545   7.7019   7.7020   7.7097   7.7244   7.7781
     7.7781   7.9895   8.1813   8.3779   8.3779   8.5560   8.5560   8.6151
     8.7834   9.2072   9.2072   9.3729   9.3730   9.4033   9.5523   9.5523
     9.6886   9.7435   9.7435   9.7444   9.7527   9.7714   9.7714   9.7764
     9.9002  10.0199  10.0200  10.1292  10.1300  10.1301  10.1416  10.2166
    10.2318  10.2319  10.3433  10.3433  10.3535  10.5347  10.5347  10.6194
    10.8378  10.8378  10.8789  10.8789  10.9290  10.9565  10.9573  10.9607
    11.0005  11.1025  12.0689  12.1721  12.2091  12.2402  12.5080  12.5080
    12.5674  12.5674  12.6010  12.7444  12.9462  12.9463  12.9628  13.0582
    13.1329  13.1943  13.2399  13.2400  13.5157  13.8266  13.8745  13.9073
    14.2388  14.7543  14.7544  14.7663  14.8078  14.8519  14.8519  15.0007
    15.3207  15.3277  15.3289  15.3759  15.3947  15.3948  16.2598  16.3383
    16.5135  16.5135  16.5712

     occupation numbers 
     1.0000   1.0000   1.0000   1.0000   1.0000   1.0000   1.0000   1.0000
     1.0000   1.0000   1.0000   1.0000   1.0000   1.0000   1.0000   1.0000
     1.0000   1.0000   1.0000   1.0000   1.0000   1.0000   1.0000   1.0000
     1.0000   1.0000   1.0000   1.0000   1.0000   1.0000   1.0000   1.0000
     1.0000   1.0000   1.0000   1.0000   1.0000   1.0000   1.0000   1.0000
     1.0000   1.0000   1.0000   1.0000   1.0000   1.0000   1.0000   1.0000
     1.0000   1.0000   1.0000   1.0000   1.0000   1.0000   1.0000   1.0000
     1.0000   1.0000   1.0000   1.0000   1.0000   1.0000   1.0000   1.0000
     1.0000   1.0000   1.0000   1.0000   1.0000   1.0000   1.0000   1.0000
     1.0000   1.0000   1.0000   1.0000   1.0000   1.0000   1.0000   1.0000
     1.0000   1.0000   1.0000   1.0000   1.0000   1.0000   1.0000   1.0000
     1.0000   1.0000   1.0000   1.0000   1.0000   1.0000   1.0000   1.0000
     1.0000   1.0000   1.0000   1.0000   1.0000   1.0000   1.0000   1.0000
     1.0000   1.0000   1.0000   1.0000   1.0000   1.0000   1.0000   1.0000
     1.0000   1.0000   1.0000   1.0000   1.0000   1.0000   1.0000   1.0000
     1.0000   1.0000   1.0000   1.0000   1.0000   1.0000   1.0000   1.0000
     1.0000   1.0000   1.0000   1.0000   1.0000   1.0000   1.0000   1.0000
     1.0000   1.0000   1.0000   1.0000   1.0000   1.0000   1.0000   1.0000
     1.0000   1.0000   1.0000   1.0000   1.0000   1.0000   1.0000   1.0000
     1.0000   1.0000   1.0000   1.0000   1.0000   1.0000   1.0000   1.0000
     1.0000   1.0000   1.0000   1.0000   1.0000   1.0000   1.0000   1.0000
     1.0000   1.0000   1.0000   1.0000   1.0000   1.0000   1.0000   1.0000
     1.0000   1.0000   1.0000   1.0000   1.0000   1.0000   1.0000   1.0000
     1.0000   1.0000   1.0000   1.0000   1.0000   1.0000   1.0000   1.0000
     1.0000   1.0000   1.0023   0.5794   0.3527   0.1859  -0.0020  -0.0020
    -0.0003  -0.0003  -0.0001  -0.0000  -0.0000  -0.0000  -0.0000  -0.0000
    -0.0000  -0.0000  -0.0000  -0.0000  -0.0000  -0.0000  -0.0000  -0.0000
    -0.0000  -0.0000  -0.0000  -0.0000  -0.0000  -0.0000  -0.0000  -0.0000
    -0.0000  -0.0000  -0.0000  -0.0000  -0.0000  -0.0000  -0.0000  -0.0000
    -0.0000  -0.0000  -0.0000

 ------ SPIN DOWN ----------


          k = 0.0000 0.0000 0.0000 ( 14147 PWs)   bands (ev):

   -78.5734 -78.5734 -78.5734 -78.5734 -74.1659 -74.1659 -74.1658 -74.1658
   -44.7076 -44.7076 -44.7067 -44.7067 -44.4714 -44.4714 -44.4714 -44.4714
   -44.4713 -44.4713 -44.4712 -44.4712 -40.4659 -40.4659 -40.4642 -40.4642
   -40.1670 -40.1670 -40.1670 -40.1670 -40.1668 -40.1668 -40.1668 -40.1668
   -11.6336 -11.6288 -11.6237 -11.6225 -11.6051 -11.6051 -11.5975 -11.5973
   -11.5973 -11.5905 -11.5901 -11.5900 -11.5898 -11.5898 -11.5877 -11.5877
   -11.5877 -11.5763 -11.5740 -11.5632 -11.5632 -11.5630 -11.5612 -11.5598
   -11.5581 -11.5559 -11.5558 -11.5556 -11.5555 -11.5552 -11.5528 -11.5511
   -11.5473 -11.5441 -11.5408 -11.5407 -11.5372 -11.5230 -11.5230 -11.5156
    -7.0868  -6.4202  -6.3217  -6.2876  -5.8090  -5.7869  -5.7061  -5.6463
    -5.6463  -5.6256  -5.6225  -5.5610  -5.4782  -5.4782  -5.4770  -5.4770
    -5.4576  -5.3152  -5.3152  -5.2901  -5.2635  -5.2108  -5.1772  -5.1694
     0.9272   0.9272   0.9451   1.3176   1.3294   1.3294   1.9902   2.1205
     5.1086   5.2381   5.2381   5.3513   5.3609   5.4862   5.5223   5.6492
     5.8012   6.1739   6.2346   6.3101   6.3221   6.4896   6.5495   6.5495
     6.7050   6.7103   6.9201   7.1113   7.1113   7.1185   7.1185   7.2266
     7.3357   7.3358   7.3934   7.3934   7.5169   7.5616   7.5928   7.6535
     7.6535   7.6631   7.6631   7.7030   7.7031   7.7174   7.7330   7.7804
     7.7804   7.9920   8.1831   8.3793   8.3793   8.5587   8.5588   8.6154
     8.7873   9.2099   9.2099   9.3746   9.3746   9.4062   9.5539   9.5539
     9.6908   9.7446   9.7446   9.7488   9.7569   9.7757   9.7757   9.7773
     9.9022  10.0224  10.0224  10.1309  10.1311  10.1312  10.1422  10.2204
    10.2327  10.2328  10.3451  10.3452  10.3546  10.5359  10.5359  10.6214
    10.8384  10.8384  10.8799  10.8799  10.9296  10.9570  10.9599  10.9633
    11.0049  11.1062  12.0740  12.1921  12.2109  12.2614  12.5069  12.5069
    12.5663  12.5663  12.5994  12.7483  12.9467  12.9467  12.9614  13.0593
    13.1313  13.1925  13.2393  13.2393  13.5186  13.8423  13.8939  13.9152
    14.2392  14.7680  14.7680  14.7796  14.8234  14.8564  14.8564  15.0015
    15.3346  15.3422  15.3422  15.3933  15.4010  15.4010  16.2732  16.3425
    16.5282  16.5282  16.5768

     occupation numbers 
     1.0000   1.0000   1.0000   1.0000   1.0000   1.0000   1.0000   1.0000
     1.0000   1.0000   1.0000   1.0000   1.0000   1.0000   1.0000   1.0000
     1.0000   1.0000   1.0000   1.0000   1.0000   1.0000   1.0000   1.0000
     1.0000   1.0000   1.0000   1.0000   1.0000   1.0000   1.0000   1.0000
     1.0000   1.0000   1.0000   1.0000   1.0000   1.0000   1.0000   1.0000
     1.0000   1.0000   1.0000   1.0000   1.0000   1.0000   1.0000   1.0000
     1.0000   1.0000   1.0000   1.0000   1.0000   1.0000   1.0000   1.0000
     1.0000   1.0000   1.0000   1.0000   1.0000   1.0000   1.0000   1.0000
     1.0000   1.0000   1.0000   1.0000   1.0000   1.0000   1.0000   1.0000
     1.0000   1.0000   1.0000   1.0000   1.0000   1.0000   1.0000   1.0000
     1.0000   1.0000   1.0000   1.0000   1.0000   1.0000   1.0000   1.0000
     1.0000   1.0000   1.0000   1.0000   1.0000   1.0000   1.0000   1.0000
     1.0000   1.0000   1.0000   1.0000   1.0000   1.0000   1.0000   1.0000
     1.0000   1.0000   1.0000   1.0000   1.0000   1.0000   1.0000   1.0000
     1.0000   1.0000   1.0000   1.0000   1.0000   1.0000   1.0000   1.0000
     1.0000   1.0000   1.0000   1.0000   1.0000   1.0000   1.0000   1.0000
     1.0000   1.0000   1.0000   1.0000   1.0000   1.0000   1.0000   1.0000
     1.0000   1.0000   1.0000   1.0000   1.0000   1.0000   1.0000   1.0000
     1.0000   1.0000   1.0000   1.0000   1.0000   1.0000   1.0000   1.0000
     1.0000   1.0000   1.0000   1.0000   1.0000   1.0000   1.0000   1.0000
     1.0000   1.0000   1.0000   1.0000   1.0000   1.0000   1.0000   1.0000
     1.0000   1.0000   1.0000   1.0000   1.0000   1.0000   1.0000   1.0000
     1.0000   1.0000   1.0000   1.0000   1.0000   1.0000   1.0000   1.0000
     1.0000   1.0000   1.0000   1.0000   1.0000   1.0000   1.0000   1.0000
     1.0000   1.0000   0.9939   0.4557   0.3415   0.0979  -0.0021  -0.0021
    -0.0003  -0.0003  -0.0001  -0.0000  -0.0000  -0.0000  -0.0000  -0.0000
    -0.0000  -0.0000  -0.0000  -0.0000  -0.0000  -0.0000  -0.0000  -0.0000
    -0.0000  -0.0000  -0.0000  -0.0000  -0.0000  -0.0000  -0.0000  -0.0000
    -0.0000  -0.0000  -0.0000  -0.0000  -0.0000  -0.0000  -0.0000  -0.0000
    -0.0000  -0.0000  -0.0000

     the Fermi energy is    12.1850 ev

!    total energy              =   -4259.62599691 Ry
     estimated scf accuracy    <       0.00000584 Ry
     smearing contrib. (-TS)   =      -0.00570087 Ry
     internal energy E=F+TS    =   -4259.62029604 Ry

     The total energy is F=E-TS. E is the sum of the following terms:
     one-electron contribution =   -1694.16876274 Ry
     hartree contribution      =    1096.85736881 Ry
     xc contribution           =    -924.70512761 Ry
     ewald contribution        =   -2737.60377451 Ry

     total magnetization       =     0.23 Bohr mag/cell
     absolute magnetization    =    30.65 Bohr mag/cell

     convergence has been achieved in  14 iterations

     Writing output data file /home/aldair1809/Documentos/QE/4BFO/temp/bifeo3.save/

     init_run     :     29.81s CPU     31.26s WALL (       1 calls)
     electrons    :   1350.18s CPU   1389.67s WALL (       1 calls)

     Called by init_run:
     wfcinit      :     23.07s CPU     23.26s WALL (       1 calls)
     wfcinit:atom :      0.03s CPU      0.03s WALL (       2 calls)
     wfcinit:wfcr :     22.84s CPU     22.99s WALL (       2 calls)
     potinit      :      0.87s CPU      0.99s WALL (       1 calls)
     hinit0       :      0.91s CPU      0.94s WALL (       1 calls)

     Called by electrons:
     c_bands      :   1063.28s CPU   1072.77s WALL (      14 calls)
     sum_band     :    210.99s CPU    227.32s WALL (      14 calls)
     v_of_rho     :      8.54s CPU      8.84s WALL (      15 calls)
     v_h          :      0.33s CPU      0.35s WALL (      15 calls)
     v_xc         :      8.21s CPU      8.49s WALL (      15 calls)
     newd         :     70.21s CPU     84.60s WALL (      15 calls)
     mix_rho      :      1.60s CPU      1.65s WALL (      14 calls)

     Called by c_bands:
     init_us_2    :      1.24s CPU      1.28s WALL (      58 calls)
     ccgdiagg     :    816.67s CPU    824.22s WALL (      28 calls)
     wfcrot       :    268.38s CPU    270.46s WALL (      28 calls)

     Called by sum_band:
     sum_band:wei :      0.02s CPU      0.02s WALL (      14 calls)
     sum_band:loo :     66.03s CPU     66.79s WALL (      14 calls)
     sum_band:buf :      0.21s CPU      0.21s WALL (      28 calls)
     sum_band:ini :      0.58s CPU      0.58s WALL (      28 calls)
     sum_band:cal :     50.13s CPU     50.19s WALL (      28 calls)
     sum_band:bec :      0.23s CPU      0.23s WALL (      28 calls)
     addusdens    :    142.38s CPU    157.86s WALL (      14 calls)
     addusd:skk   :      0.37s CPU      0.39s WALL (      56 calls)
     addusd:dgemm :     96.10s CPU    108.67s WALL (     112 calls)
     addusd:qvan2 :     45.23s CPU     45.62s WALL (     112 calls)

     Called by *cgdiagg:
     h_psi        :    477.33s CPU    484.25s WALL (   15040 calls)
     s_psi        :    308.74s CPU    309.84s WALL (   30052 calls)

     Called by h_psi:
     h_psi:calbec :    190.43s CPU    191.94s WALL (   15040 calls)
     vloc_psi     :    101.70s CPU    106.48s WALL (   15040 calls)
     add_vuspsi   :    184.52s CPU    185.19s WALL (   15040 calls)
     hs_1psi      :    456.52s CPU    462.11s WALL (   15012 calls)
     s_1psi       :    257.44s CPU    258.77s WALL (   15012 calls)

     General routines
     calbec       :    371.82s CPU    374.33s WALL (   30080 calls)
     fft          :      6.53s CPU      6.91s WALL (     369 calls)
     ffts         :      0.26s CPU      0.28s WALL (      58 calls)
     fftw         :    100.47s CPU    105.57s WALL (   49912 calls)
     interpolate  :      0.74s CPU      0.78s WALL (      30 calls)

     Parallel routines
     fft_scatt_xy :     16.81s CPU     17.71s WALL (   50339 calls)
     fft_scatt_yz :     25.82s CPU     28.78s WALL (   50339 calls)

     PWSCF        :  23m 0.53s CPU  23m41.78s WALL


   This run was terminated on:  14:16: 1  24Oct2024            

=------------------------------------------------------------------------------=
   JOB DONE.
=------------------------------------------------------------------------------=
