
     Program PWSCF v.6.7MaX starts on 14Dec2024 at 22:29:33 

     This program is part of the open-source Quantum ESPRESSO suite
     for quantum simulation of materials; please cite
         "P. Giannozzi et al., J. Phys.:Condens. Matter 21 395502 (2009);
         "P. Giannozzi et al., J. Phys.:Condens. Matter 29 465901 (2017);
          URL http://www.quantum-espresso.org", 
     in publications or presentations arising from this work. More details at
     http://www.quantum-espresso.org/quote

     Parallel version (MPI), running on     6 processors

     MPI processes distributed on     1 nodes
     R & G space division:  proc/nbgrp/npool/nimage =       6
     Waiting for input...
     Reading input from standard input

     Current dimensions of program PWSCF are:
     Max number of different atomic species (ntypx) = 10
     Max number of k-points (npk) =  40000
     Max angular momentum in pseudopotentials (lmaxx) =  3
     Message from routine iosys:
     wrong startingpot: use default (1)

     Atomic positions and unit cell read from directory:
     /home/aldair1809/Documentos/QE/4BFO/temp_tipoA/nscf/bifeo3.save/
     Atomic positions from file used, from input discarded


     Subspace diagonalization in iterative solution of the eigenvalue problem:
     one sub-group per band group will be used
     scalapack distributed-memory algorithm (size of sub-group:  2*  2 procs)


     Parallelization info
     --------------------
     sticks:   dense  smooth     PW     G-vecs:    dense   smooth      PW
     Min         400     198     60                39001    13755    2286
     Max         402     202     61                39005    13763    2295
     Sum        2407    1201    361               234021    82543   13737



     bravais-lattice index     =            4
     lattice parameter (alat)  =      10.4357  a.u.
     unit-cell volume          =    2419.7788 (a.u.)^3
     number of atoms/cell      =           30
     number of atomic types    =            4
     number of electrons       =       294.00
     number of Kohn-Sham states=          176
     kinetic-energy cutoff     =      40.0000  Ry
     charge density cutoff     =     320.0000  Ry
     Exchange-correlation=  SLA  PW   PBX  PBC
                           (   1   4   3   4   0   0   0)

     celldm(1)=  10.435734  celldm(2)=   0.000000  celldm(3)=   2.458533
     celldm(4)=   0.000000  celldm(5)=   0.000000  celldm(6)=   0.000000

     crystal axes: (cart. coord. in units of alat)
               a(1) = (   1.000000   0.000000   0.000000 )  
               a(2) = (  -0.500000   0.866025   0.000000 )  
               a(3) = (   0.000000   0.000000   2.458533 )  

     reciprocal axes: (cart. coord. in units 2 pi/alat)
               b(1) = (  1.000000  0.577350 -0.000000 )  
               b(2) = (  0.000000  1.154701  0.000000 )  
               b(3) = (  0.000000 -0.000000  0.406747 )  


     PseudoPot. # 1 for O  read from file:
     /home/aldair1809/Programas/QE/q-e-qe-7.3/pseudo/o_pbe_v1.2.uspp.F.UPF
     MD5 check sum: 734c27235a0248c51dbae37a1fbe46ec
     Pseudo is Ultrasoft + core correction, Zval =  6.0
     Generated by new atomic code, or converted to UPF format
     Using radial grid of  737 points,  5 beta functions with: 
                l(1) =   0
                l(2) =   0
                l(3) =   1
                l(4) =   1
                l(5) =   2
     Q(r) pseudized with  8 coefficients,  rinner =    0.900   0.900   0.900
                                                       0.900   0.900

     PseudoPot. # 2 for Bi read from file:
     /home/aldair1809/Programas/QE/q-e-qe-7.3/pseudo/bi_pbe_v1.uspp.F.UPF
     MD5 check sum: cceb9f28ec65b6d7ff33140f5b0b1758
     Pseudo is Ultrasoft + core correction, Zval = 15.0
     Generated by new atomic code, or converted to UPF format
     Using radial grid of  899 points,  6 beta functions with: 
                l(1) =   0
                l(2) =   0
                l(3) =   1
                l(4) =   1
                l(5) =   2
                l(6) =   2
     Q(r) pseudized with  6 coefficients,  rinner =    1.000   1.000   1.000
                                                       1.000   1.000

     PseudoPot. # 3 for Fe read from file:
     /home/aldair1809/Programas/QE/q-e-qe-7.3/pseudo/fe_pbe_v1.5.uspp.F.UPF
     MD5 check sum: a130daea23fe5165f5d574ae7f82ed95
     Pseudo is Ultrasoft + core correction, Zval = 16.0
     Generated by new atomic code, or converted to UPF format
     Using radial grid of  861 points,  6 beta functions with: 
                l(1) =   0
                l(2) =   0
                l(3) =   1
                l(4) =   1
                l(5) =   2
                l(6) =   2
     Q(r) pseudized with  8 coefficients,  rinner =    1.000   1.000   1.000
                                                       1.000   1.000

     PseudoPot. # 4 for Fe read from file:
     /home/aldair1809/Programas/QE/q-e-qe-7.3/pseudo/fe_pbe_v1.5.uspp.F.UPF
     MD5 check sum: a130daea23fe5165f5d574ae7f82ed95
     Pseudo is Ultrasoft + core correction, Zval = 16.0
     Generated by new atomic code, or converted to UPF format
     Using radial grid of  861 points,  6 beta functions with: 
                l(1) =   0
                l(2) =   0
                l(3) =   1
                l(4) =   1
                l(5) =   2
                l(6) =   2
     Q(r) pseudized with  8 coefficients,  rinner =    1.000   1.000   1.000
                                                       1.000   1.000

     atomic species   valence    mass     pseudopotential
        O              6.00    15.99940     O ( 1.00)
        Bi            15.00   208.98040     Bi( 1.00)
        Fe1           16.00    55.84500     Fe( 1.00)
        Fe2           16.00    55.84500     Fe( 1.00)

     Starting magnetic structure 
     atomic species   magnetization
        O            0.000
        Bi           0.000
        Fe1         -0.800
        Fe2          0.800


     Simplified LDA+U calculation (l_max = 2) with parameters (eV):
     atomic species    L          U    alpha       J0     beta
        Fe1            2     4.1000   0.0000   0.0000   0.0000
        Fe2            2     4.1000   0.0000   0.0000   0.0000



     No symmetry found


                                    s                        frac. trans.

      isym =  1     identity                                     

 cryst.   s( 1) = (     1          0          0      )
                  (     0          1          0      )
                  (     0          0          1      )

 cart.    s( 1) = (  1.0000000  0.0000000  0.0000000 )
                  (  0.0000000  1.0000000  0.0000000 )
                  (  0.0000000  0.0000000  1.0000000 )


     point group C_1 (1)    
     there are  1 classes
     the character table:

       E    
A      1.00

     the symmetry operations in each class and the name of the first element:

     E        1
          identity                                               

   Cartesian axes

     site n.     atom                  positions (alat units)
         1           Fe2 tau(   1) = (   0.0000000   0.0000000   1.9108937  )
         2           Fe1 tau(   2) = (  -0.0000005   0.5773506   2.3205983  )
         3           Fe1 tau(   3) = (   0.5000005   0.2886748   1.5012165  )
         4           Fe2 tau(   4) = (   0.5000005   0.2886748   0.2719883  )
         5           Fe1 tau(   5) = (   0.0000000   0.0000000   0.6816731  )
         6           Fe2 tau(   6) = (  -0.0000005   0.5773506   1.0913263  )
         7           Bi  tau(   7) = (   0.5000005   0.2886748   2.0662347  )
         8           Bi  tau(   8) = (  -0.0000005   0.5773506   1.6560675  )
         9           Bi  tau(   9) = (  -0.0000005   0.5773506   0.4267941  )
        10           Bi  tau(  10) = (   0.0000000   0.0000000   0.0172186  )
        11           Bi  tau(  11) = (   0.0000000   0.0000000   1.2465036  )
        12           Bi  tau(  12) = (   0.5000005   0.2886748   0.8369763  )
        13           O   tau(  13) = (  -0.3005870   0.6647756   2.1624421  )
        14           O   tau(  14) = (   0.0745814   0.2733208   2.1624421  )
        15           O   tau(  15) = (   0.2260070   0.7939536   2.1624421  )
        16           O   tau(  16) = (   0.4254330   0.5619882   1.7527437  )
        17           O   tau(  17) = (   0.3005869   0.0874426   1.7527437  )
        18           O   tau(  18) = (   0.7739786   0.2165955   1.7527437  )
        19           O   tau(  19) = (   0.6994059   0.0874362   0.5234995  )
        20           O   tau(  20) = (   0.5745746   0.5619860   0.5234995  )
        21           O   tau(  21) = (   0.2260180   0.2166040   0.5234995  )
        22           O   tau(  22) = (  -0.0745661   0.8507653   0.1135732  )
        23           O   tau(  23) = (  -0.1995013   0.3760667   0.1135732  )
        24           O   tau(  24) = (   0.2740674   0.5052189   0.1135732  )
        25           O   tau(  25) = (   0.1994921   0.3760730   1.3428354  )
        26           O   tau(  26) = (   0.0745652   0.8507542   1.3428354  )
        27           O   tau(  27) = (  -0.2740573   0.5052237   1.3428354  )
        28           O   tau(  28) = (  -0.0745884   0.2733113   0.9331975  )
        29           O   tau(  29) = (   0.3006002   0.6647734   0.9331975  )
        30           O   tau(  30) = (  -0.2260103   0.7939652   0.9331975  )

   Crystallographic axes

     site n.     atom                  positions (cryst. coord.)
         1           Fe2 tau(   1) = (  0.0000000  0.0000000  0.7772496  )
         2           Fe1 tau(   2) = (  0.3333330  0.6666670  0.9438955  )
         3           Fe1 tau(   3) = (  0.6666670  0.3333330  0.6106148  )
         4           Fe2 tau(   4) = (  0.6666670  0.3333330  0.1106303  )
         5           Fe1 tau(   5) = (  0.0000000  0.0000000  0.2772683  )
         6           Fe2 tau(   6) = (  0.3333330  0.6666670  0.4438933  )
         7           Bi  tau(   7) = (  0.6666670  0.3333330  0.8404340  )
         8           Bi  tau(   8) = (  0.3333330  0.6666670  0.6735999  )
         9           Bi  tau(   9) = (  0.3333330  0.6666670  0.1735971  )
        10           Bi  tau(  10) = (  0.0000000  0.0000000  0.0070036  )
        11           Bi  tau(  11) = (  0.0000000  0.0000000  0.5070111  )
        12           Bi  tau(  12) = (  0.6666670  0.3333330  0.3404373  )
        13           O   tau(  13) = (  0.0832214  0.7676167  0.8795660  )
        14           O   tau(  14) = (  0.2323833  0.3156037  0.8795660  )
        15           O   tau(  15) = (  0.6843963  0.9167786  0.8795660  )
        16           O   tau(  16) = (  0.7498970  0.6489281  0.7129226  )
        17           O   tau(  17) = (  0.3510719  0.1009700  0.7129226  )
        18           O   tau(  18) = (  0.8990300  0.2501030  0.7129226  )
        19           O   tau(  19) = (  0.7498872  0.1009626  0.2129316  )
        20           O   tau(  20) = (  0.8990374  0.6489256  0.2129316  )
        21           O   tau(  21) = (  0.3510744  0.2501128  0.2129316  )
        22           O   tau(  22) = (  0.4166235  0.9823791  0.0461955  )
        23           O   tau(  23) = (  0.0176209  0.4342444  0.0461955  )
        24           O   tau(  24) = (  0.5657556  0.5833765  0.0461955  )
        25           O   tau(  25) = (  0.4166179  0.4342517  0.5461938  )
        26           O   tau(  26) = (  0.5657483  0.9823663  0.5461938  )
        27           O   tau(  27) = (  0.0176337  0.5833821  0.5461938  )
        28           O   tau(  28) = (  0.0832080  0.3155927  0.3795749  )
        29           O   tau(  29) = (  0.6844073  0.7676142  0.3795749  )
        30           O   tau(  30) = (  0.2323858  0.9167920  0.3795749  )

     number of k points=    76 (tetrahedron method)
                       cart. coord. in units 2pi/alat
        k(    1) = (   0.0000000   0.0000000   0.0000000), wk =   0.0069444
        k(    2) = (   0.0000000   0.0000000   0.1016867), wk =   0.0138889
        k(    3) = (   0.0000000   0.0000000  -0.2033733), wk =   0.0069444
        k(    4) = (   0.0000000   0.1924501   0.0000000), wk =   0.0138889
        k(    5) = (   0.0000000   0.1924501   0.1016867), wk =   0.0138889
        k(    6) = (   0.0000000   0.1924501  -0.2033733), wk =   0.0138889
        k(    7) = (   0.0000000   0.1924501  -0.1016867), wk =   0.0138889
        k(    8) = (   0.0000000   0.3849002   0.0000000), wk =   0.0138889
        k(    9) = (   0.0000000   0.3849002   0.1016867), wk =   0.0138889
        k(   10) = (   0.0000000   0.3849002  -0.2033733), wk =   0.0138889
        k(   11) = (   0.0000000   0.3849002  -0.1016867), wk =   0.0138889
        k(   12) = (   0.0000000  -0.5773503   0.0000000), wk =   0.0069444
        k(   13) = (   0.0000000  -0.5773503   0.1016867), wk =   0.0138889
        k(   14) = (   0.0000000  -0.5773503  -0.2033733), wk =   0.0069444
        k(   15) = (   0.1666667   0.0962250   0.0000000), wk =   0.0138889
        k(   16) = (   0.1666667   0.0962250   0.1016867), wk =   0.0138889
        k(   17) = (   0.1666667   0.0962250  -0.2033733), wk =   0.0138889
        k(   18) = (   0.1666667   0.0962250  -0.1016867), wk =   0.0138889
        k(   19) = (   0.1666667   0.2886751   0.0000000), wk =   0.0138889
        k(   20) = (   0.1666667   0.2886751   0.1016867), wk =   0.0138889
        k(   21) = (   0.1666667   0.2886751  -0.2033733), wk =   0.0138889
        k(   22) = (   0.1666667   0.2886751  -0.1016867), wk =   0.0138889
        k(   23) = (   0.1666667   0.4811252   0.0000000), wk =   0.0138889
        k(   24) = (   0.1666667   0.4811252   0.1016867), wk =   0.0138889
        k(   25) = (   0.1666667   0.4811252  -0.2033733), wk =   0.0138889
        k(   26) = (   0.1666667   0.4811252  -0.1016867), wk =   0.0138889
        k(   27) = (   0.1666667  -0.4811252   0.0000000), wk =   0.0138889
        k(   28) = (   0.1666667  -0.4811252   0.1016867), wk =   0.0138889
        k(   29) = (   0.1666667  -0.4811252  -0.2033733), wk =   0.0138889
        k(   30) = (   0.1666667  -0.4811252  -0.1016867), wk =   0.0138889
        k(   31) = (   0.1666667  -0.2886751   0.0000000), wk =   0.0138889
        k(   32) = (   0.1666667  -0.2886751   0.1016867), wk =   0.0138889
        k(   33) = (   0.1666667  -0.2886751  -0.2033733), wk =   0.0138889
        k(   34) = (   0.1666667  -0.2886751  -0.1016867), wk =   0.0138889
        k(   35) = (   0.1666667  -0.0962250   0.0000000), wk =   0.0138889
        k(   36) = (   0.1666667  -0.0962250   0.1016867), wk =   0.0138889
        k(   37) = (   0.1666667  -0.0962250  -0.2033733), wk =   0.0138889
        k(   38) = (   0.1666667  -0.0962250  -0.1016867), wk =   0.0138889
        k(   39) = (   0.3333333   0.1924501   0.0000000), wk =   0.0138889
        k(   40) = (   0.3333333   0.1924501   0.1016867), wk =   0.0138889
        k(   41) = (   0.3333333   0.1924501  -0.2033733), wk =   0.0138889
        k(   42) = (   0.3333333   0.1924501  -0.1016867), wk =   0.0138889
        k(   43) = (   0.3333333   0.3849002   0.0000000), wk =   0.0138889
        k(   44) = (   0.3333333   0.3849002   0.1016867), wk =   0.0138889
        k(   45) = (   0.3333333   0.3849002  -0.2033733), wk =   0.0138889
        k(   46) = (   0.3333333   0.3849002  -0.1016867), wk =   0.0138889
        k(   47) = (   0.3333333   0.5773503   0.0000000), wk =   0.0138889
        k(   48) = (   0.3333333   0.5773503   0.1016867), wk =   0.0138889
        k(   49) = (   0.3333333   0.5773503  -0.2033733), wk =   0.0138889
        k(   50) = (   0.3333333   0.5773503  -0.1016867), wk =   0.0138889
        k(   51) = (   0.3333333  -0.3849002   0.0000000), wk =   0.0138889
        k(   52) = (   0.3333333  -0.3849002   0.1016867), wk =   0.0138889
        k(   53) = (   0.3333333  -0.3849002  -0.2033733), wk =   0.0138889
        k(   54) = (   0.3333333  -0.3849002  -0.1016867), wk =   0.0138889
        k(   55) = (   0.3333333  -0.1924501   0.0000000), wk =   0.0138889
        k(   56) = (   0.3333333  -0.1924501   0.1016867), wk =   0.0138889
        k(   57) = (   0.3333333  -0.1924501  -0.2033733), wk =   0.0138889
        k(   58) = (   0.3333333  -0.1924501  -0.1016867), wk =   0.0138889
        k(   59) = (   0.3333333   0.0000000   0.0000000), wk =   0.0138889
        k(   60) = (   0.3333333   0.0000000   0.1016867), wk =   0.0138889
        k(   61) = (   0.3333333   0.0000000  -0.2033733), wk =   0.0138889
        k(   62) = (   0.3333333   0.0000000  -0.1016867), wk =   0.0138889
        k(   63) = (  -0.5000000  -0.2886751   0.0000000), wk =   0.0069444
        k(   64) = (  -0.5000000  -0.2886751   0.1016867), wk =   0.0138889
        k(   65) = (  -0.5000000  -0.2886751  -0.2033733), wk =   0.0069444
        k(   66) = (  -0.5000000  -0.0962250   0.0000000), wk =   0.0138889
        k(   67) = (  -0.5000000  -0.0962250   0.1016867), wk =   0.0138889
        k(   68) = (  -0.5000000  -0.0962250  -0.2033733), wk =   0.0138889
        k(   69) = (  -0.5000000  -0.0962250  -0.1016867), wk =   0.0138889
        k(   70) = (  -0.5000000   0.0962250   0.0000000), wk =   0.0138889
        k(   71) = (  -0.5000000   0.0962250   0.1016867), wk =   0.0138889
        k(   72) = (  -0.5000000   0.0962250  -0.2033733), wk =   0.0138889
        k(   73) = (  -0.5000000   0.0962250  -0.1016867), wk =   0.0138889
        k(   74) = (  -0.5000000  -0.8660254   0.0000000), wk =   0.0069444
        k(   75) = (  -0.5000000  -0.8660254   0.1016867), wk =   0.0138889
        k(   76) = (  -0.5000000  -0.8660254  -0.2033733), wk =   0.0069444

                       cryst. coord.
        k(    1) = (   0.0000000   0.0000000   0.0000000), wk =   0.0069444
        k(    2) = (   0.0000000   0.0000000   0.2500000), wk =   0.0138889
        k(    3) = (   0.0000000   0.0000000  -0.5000000), wk =   0.0069444
        k(    4) = (   0.0000000   0.1666667   0.0000000), wk =   0.0138889
        k(    5) = (   0.0000000   0.1666667   0.2500000), wk =   0.0138889
        k(    6) = (   0.0000000   0.1666667  -0.5000000), wk =   0.0138889
        k(    7) = (   0.0000000   0.1666667  -0.2500000), wk =   0.0138889
        k(    8) = (   0.0000000   0.3333333   0.0000000), wk =   0.0138889
        k(    9) = (   0.0000000   0.3333333   0.2500000), wk =   0.0138889
        k(   10) = (   0.0000000   0.3333333  -0.5000000), wk =   0.0138889
        k(   11) = (   0.0000000   0.3333333  -0.2500000), wk =   0.0138889
        k(   12) = (   0.0000000  -0.5000000   0.0000000), wk =   0.0069444
        k(   13) = (   0.0000000  -0.5000000   0.2500000), wk =   0.0138889
        k(   14) = (   0.0000000  -0.5000000  -0.5000000), wk =   0.0069444
        k(   15) = (   0.1666667   0.0000000   0.0000000), wk =   0.0138889
        k(   16) = (   0.1666667   0.0000000   0.2500000), wk =   0.0138889
        k(   17) = (   0.1666667   0.0000000  -0.5000000), wk =   0.0138889
        k(   18) = (   0.1666667   0.0000000  -0.2500000), wk =   0.0138889
        k(   19) = (   0.1666667   0.1666667   0.0000000), wk =   0.0138889
        k(   20) = (   0.1666667   0.1666667   0.2500000), wk =   0.0138889
        k(   21) = (   0.1666667   0.1666667  -0.5000000), wk =   0.0138889
        k(   22) = (   0.1666667   0.1666667  -0.2500000), wk =   0.0138889
        k(   23) = (   0.1666667   0.3333333   0.0000000), wk =   0.0138889
        k(   24) = (   0.1666667   0.3333333   0.2500000), wk =   0.0138889
        k(   25) = (   0.1666667   0.3333333  -0.5000000), wk =   0.0138889
        k(   26) = (   0.1666667   0.3333333  -0.2500000), wk =   0.0138889
        k(   27) = (   0.1666667  -0.5000000   0.0000000), wk =   0.0138889
        k(   28) = (   0.1666667  -0.5000000   0.2500000), wk =   0.0138889
        k(   29) = (   0.1666667  -0.5000000  -0.5000000), wk =   0.0138889
        k(   30) = (   0.1666667  -0.5000000  -0.2500000), wk =   0.0138889
        k(   31) = (   0.1666667  -0.3333333   0.0000000), wk =   0.0138889
        k(   32) = (   0.1666667  -0.3333333   0.2500000), wk =   0.0138889
        k(   33) = (   0.1666667  -0.3333333  -0.5000000), wk =   0.0138889
        k(   34) = (   0.1666667  -0.3333333  -0.2500000), wk =   0.0138889
        k(   35) = (   0.1666667  -0.1666667   0.0000000), wk =   0.0138889
        k(   36) = (   0.1666667  -0.1666667   0.2500000), wk =   0.0138889
        k(   37) = (   0.1666667  -0.1666667  -0.5000000), wk =   0.0138889
        k(   38) = (   0.1666667  -0.1666667  -0.2500000), wk =   0.0138889
        k(   39) = (   0.3333333   0.0000000   0.0000000), wk =   0.0138889
        k(   40) = (   0.3333333   0.0000000   0.2500000), wk =   0.0138889
        k(   41) = (   0.3333333   0.0000000  -0.5000000), wk =   0.0138889
        k(   42) = (   0.3333333   0.0000000  -0.2500000), wk =   0.0138889
        k(   43) = (   0.3333333   0.1666667   0.0000000), wk =   0.0138889
        k(   44) = (   0.3333333   0.1666667   0.2500000), wk =   0.0138889
        k(   45) = (   0.3333333   0.1666667  -0.5000000), wk =   0.0138889
        k(   46) = (   0.3333333   0.1666667  -0.2500000), wk =   0.0138889
        k(   47) = (   0.3333333   0.3333333   0.0000000), wk =   0.0138889
        k(   48) = (   0.3333333   0.3333333   0.2500000), wk =   0.0138889
        k(   49) = (   0.3333333   0.3333333  -0.5000000), wk =   0.0138889
        k(   50) = (   0.3333333   0.3333333  -0.2500000), wk =   0.0138889
        k(   51) = (   0.3333333  -0.5000000   0.0000000), wk =   0.0138889
        k(   52) = (   0.3333333  -0.5000000   0.2500000), wk =   0.0138889
        k(   53) = (   0.3333333  -0.5000000  -0.5000000), wk =   0.0138889
        k(   54) = (   0.3333333  -0.5000000  -0.2500000), wk =   0.0138889
        k(   55) = (   0.3333333  -0.3333333   0.0000000), wk =   0.0138889
        k(   56) = (   0.3333333  -0.3333333   0.2500000), wk =   0.0138889
        k(   57) = (   0.3333333  -0.3333333  -0.5000000), wk =   0.0138889
        k(   58) = (   0.3333333  -0.3333333  -0.2500000), wk =   0.0138889
        k(   59) = (   0.3333333  -0.1666667   0.0000000), wk =   0.0138889
        k(   60) = (   0.3333333  -0.1666667   0.2500000), wk =   0.0138889
        k(   61) = (   0.3333333  -0.1666667  -0.5000000), wk =   0.0138889
        k(   62) = (   0.3333333  -0.1666667  -0.2500000), wk =   0.0138889
        k(   63) = (  -0.5000000   0.0000000   0.0000000), wk =   0.0069444
        k(   64) = (  -0.5000000   0.0000000   0.2500000), wk =   0.0138889
        k(   65) = (  -0.5000000   0.0000000  -0.5000000), wk =   0.0069444
        k(   66) = (  -0.5000000   0.1666667   0.0000000), wk =   0.0138889
        k(   67) = (  -0.5000000   0.1666667   0.2500000), wk =   0.0138889
        k(   68) = (  -0.5000000   0.1666667  -0.5000000), wk =   0.0138889
        k(   69) = (  -0.5000000   0.1666667  -0.2500000), wk =   0.0138889
        k(   70) = (  -0.5000000   0.3333333   0.0000000), wk =   0.0138889
        k(   71) = (  -0.5000000   0.3333333   0.2500000), wk =   0.0138889
        k(   72) = (  -0.5000000   0.3333333  -0.5000000), wk =   0.0138889
        k(   73) = (  -0.5000000   0.3333333  -0.2500000), wk =   0.0138889
        k(   74) = (  -0.5000000  -0.5000000   0.0000000), wk =   0.0069444
        k(   75) = (  -0.5000000  -0.5000000   0.2500000), wk =   0.0138889
        k(   76) = (  -0.5000000  -0.5000000  -0.5000000), wk =   0.0069444

     Dense  grid:   234021 G-vectors     FFT dimensions: (  60,  60, 150)

     Smooth grid:    82543 G-vectors     FFT dimensions: (  45,  45, 108)

     Dynamical RAM for                 wfc:       4.62 MB

     Dynamical RAM for     wfc (w. buffer):       4.62 MB

     Dynamical RAM for             U proj.:       0.79 MB

     Dynamical RAM for  U proj. (w. buff.):       0.79 MB

     Dynamical RAM for           str. fact:       2.38 MB

     Dynamical RAM for           local pot:       0.00 MB

     Dynamical RAM for          nlocal pot:      11.82 MB

     Dynamical RAM for                qrad:       5.74 MB

     Dynamical RAM for          rho,v,vnew:       7.69 MB

     Dynamical RAM for           G-vectors:       2.34 MB

     Dynamical RAM for          h,s,v(r/c):       0.35 MB

     Dynamical RAM for          <psi|beta>:       1.21 MB

     Dynamical RAM for      wfcinit/wfcrot:      11.67 MB

     Dynamical RAM for           addusdens:     122.01 MB

     Estimated static dynamical RAM per process >      42.48 MB

     Estimated max dynamical RAM per process >     164.49 MB

     Estimated total dynamical RAM >     986.96 MB

     Check: negative core charge=   -0.000014
     Generating pointlists ...
     new r_m :   0.1447 (alat units)  1.5098 (a.u.) for type    1
     new r_m :   0.1742 (alat units)  1.8183 (a.u.) for type    2
     new r_m :   0.1447 (alat units)  1.5098 (a.u.) for type    3
     new r_m :   0.1447 (alat units)  1.5098 (a.u.) for type    4

     The potential is recalculated from file :
     /home/aldair1809/Documentos/QE/4BFO/temp_tipoA/nscf/bifeo3.save/charge-density


     negative rho (up, down):  1.205E-01 1.205E-01
 --- in v_hubbard ---
Hubbard energy    0.7199
 -------
     Number of +U iterations with fixed ns =  0
     Starting occupations:
 --- enter write_ns ---
 LDA+U parameters:
U( 3)     =  4.10000000
U( 4)     =  4.10000000
atom    1   Tr[ns(na)] (up, down, total) =   4.97542  1.04904  6.02446
   spin  1
    eigenvalues: 
  0.992  0.992  0.997  0.997  0.997
    eigenvectors:
  0.000  0.000  1.000  0.000  0.000
  0.000  0.541  0.000  0.014  0.444
  0.541  0.000  0.000  0.444  0.014
  0.166  0.293  0.000  0.124  0.418
  0.293  0.166  0.000  0.418  0.124
    occupations:
  0.997 -0.000 -0.000 -0.000 -0.000
 -0.000  0.995 -0.000 -0.002 -0.002
 -0.000 -0.000  0.995 -0.002  0.002
 -0.000 -0.002 -0.002  0.995  0.000
 -0.000 -0.002  0.002  0.000  0.995
   spin  2
    eigenvalues: 
  0.122  0.122  0.125  0.341  0.341
    eigenvectors:
  0.000  0.000  1.000  0.000  0.000
  0.030  0.365  0.000  0.005  0.600
  0.365  0.030  0.000  0.600  0.005
  0.157  0.448  0.000  0.174  0.221
  0.448  0.157  0.000  0.221  0.174
    occupations:
  0.125 -0.000 -0.000 -0.000 -0.000
 -0.000  0.254 -0.000  0.073  0.078
 -0.000 -0.000  0.254  0.078 -0.073
 -0.000  0.073  0.078  0.208  0.000
 -0.000  0.078 -0.073  0.000  0.208
atomic mag. moment =   3.92637
atom    2   Tr[ns(na)] (up, down, total) =   1.04911  4.97544  6.02454
   spin  1
    eigenvalues: 
  0.122  0.122  0.125  0.341  0.341
    eigenvectors:
  0.000  0.000  1.000  0.000  0.000
  0.317  0.078  0.000  0.441  0.164
  0.078  0.317  0.000  0.164  0.441
  0.051  0.553  0.000  0.017  0.378
  0.553  0.051  0.000  0.378  0.017
    occupations:
  0.125 -0.000 -0.000 -0.000 -0.000
 -0.000  0.254 -0.000 -0.073  0.078
 -0.000 -0.000  0.254  0.078  0.073
 -0.000 -0.073  0.078  0.208  0.000
 -0.000  0.078  0.073  0.000  0.208
   spin  2
    eigenvalues: 
  0.992  0.992  0.997  0.997  0.997
    eigenvectors:
  0.000  0.000  1.000  0.000  0.000
  0.360  0.182  0.000  0.284  0.175
  0.182  0.360  0.000  0.175  0.284
  0.035  0.424  0.000  0.029  0.512
  0.424  0.035  0.000  0.512  0.029
    occupations:
  0.997 -0.000 -0.000 -0.000 -0.000
 -0.000  0.995 -0.000  0.002 -0.002
 -0.000 -0.000  0.995 -0.002 -0.002
 -0.000  0.002 -0.002  0.995  0.000
 -0.000 -0.002 -0.002  0.000  0.995
atomic mag. moment =  -3.92633
atom    3   Tr[ns(na)] (up, down, total) =   1.04893  4.97543  6.02436
   spin  1
    eigenvalues: 
  0.122  0.122  0.124  0.341  0.341
    eigenvectors:
  0.000  0.000  1.000  0.000  0.000
  0.316  0.078  0.000  0.441  0.165
  0.078  0.316  0.000  0.165  0.441
  0.051  0.554  0.000  0.017  0.378
  0.554  0.051  0.000  0.378  0.017
    occupations:
  0.124 -0.000 -0.000 -0.000 -0.000
 -0.000  0.254 -0.000 -0.074  0.078
 -0.000 -0.000  0.254  0.078  0.074
 -0.000 -0.074  0.078  0.208  0.000
 -0.000  0.078  0.074  0.000  0.208
   spin  2
    eigenvalues: 
  0.992  0.992  0.997  0.997  0.997
    eigenvectors:
  0.000  0.000  1.000  0.000  0.000
  0.361  0.182  0.000  0.283  0.174
  0.182  0.361  0.000  0.174  0.283
  0.035  0.422  0.000  0.029  0.514
  0.422  0.035  0.000  0.514  0.029
    occupations:
  0.997 -0.000 -0.000 -0.000 -0.000
 -0.000  0.994 -0.000  0.002 -0.002
 -0.000 -0.000  0.994 -0.002 -0.002
 -0.000  0.002 -0.002  0.995  0.000
 -0.000 -0.002 -0.002  0.000  0.995
atomic mag. moment =  -3.92650
atom    4   Tr[ns(na)] (up, down, total) =   4.97544  1.04900  6.02444
   spin  1
    eigenvalues: 
  0.992  0.992  0.997  0.997  0.997
    eigenvectors:
  0.000  0.000  1.000  0.000  0.000
  0.000  0.542  0.000  0.014  0.444
  0.542  0.000  0.000  0.444  0.014
  0.165  0.292  0.000  0.124  0.419
  0.292  0.165  0.000  0.419  0.124
    occupations:
  0.997 -0.000 -0.000 -0.000 -0.000
 -0.000  0.994 -0.000 -0.002 -0.002
 -0.000 -0.000  0.994 -0.002  0.002
 -0.000 -0.002 -0.002  0.995  0.000
 -0.000 -0.002  0.002  0.000  0.995
   spin  2
    eigenvalues: 
  0.122  0.122  0.124  0.341  0.341
    eigenvectors:
  0.000  0.000  1.000  0.000  0.000
  0.030  0.364  0.000  0.005  0.601
  0.364  0.030  0.000  0.601  0.005
  0.157  0.449  0.000  0.174  0.220
  0.449  0.157  0.000  0.220  0.174
    occupations:
  0.124 -0.000 -0.000 -0.000 -0.000
 -0.000  0.254 -0.000  0.074  0.078
 -0.000 -0.000  0.254  0.078 -0.074
 -0.000  0.074  0.078  0.208  0.000
 -0.000  0.078 -0.074  0.000  0.208
atomic mag. moment =   3.92644
atom    5   Tr[ns(na)] (up, down, total) =   1.04906  4.97541  6.02447
   spin  1
    eigenvalues: 
  0.122  0.122  0.125  0.341  0.341
    eigenvectors:
  0.000  0.000  1.000  0.000  0.000
  0.317  0.079  0.000  0.440  0.165
  0.079  0.317  0.000  0.165  0.440
  0.051  0.554  0.000  0.017  0.378
  0.554  0.051  0.000  0.378  0.017
    occupations:
  0.125 -0.000 -0.000 -0.000 -0.000
 -0.000  0.254 -0.000 -0.073  0.078
 -0.000 -0.000  0.254  0.078  0.073
 -0.000 -0.073  0.078  0.208  0.000
 -0.000  0.078  0.073  0.000  0.208
   spin  2
    eigenvalues: 
  0.992  0.992  0.997  0.997  0.997
    eigenvectors:
  0.000  0.000  1.000  0.000  0.000
  0.360  0.182  0.000  0.284  0.174
  0.182  0.360  0.000  0.174  0.284
  0.035  0.423  0.000  0.029  0.513
  0.423  0.035  0.000  0.513  0.029
    occupations:
  0.997 -0.000 -0.000 -0.000 -0.000
 -0.000  0.994 -0.000  0.002 -0.002
 -0.000 -0.000  0.994 -0.002 -0.002
 -0.000  0.002 -0.002  0.995  0.000
 -0.000 -0.002 -0.002  0.000  0.995
atomic mag. moment =  -3.92636
atom    6   Tr[ns(na)] (up, down, total) =   4.97544  1.04916  6.02460
   spin  1
    eigenvalues: 
  0.992  0.992  0.997  0.997  0.997
    eigenvectors:
  0.000  0.000  1.000  0.000  0.000
  0.000  0.541  0.000  0.014  0.445
  0.541  0.000  0.000  0.445  0.014
  0.166  0.293  0.000  0.124  0.417
  0.293  0.166  0.000  0.417  0.124
    occupations:
  0.997 -0.000 -0.000 -0.000 -0.000
 -0.000  0.995 -0.000 -0.002 -0.002
 -0.000 -0.000  0.995 -0.002  0.002
 -0.000 -0.002 -0.002  0.995  0.000
 -0.000 -0.002  0.002  0.000  0.995
   spin  2
    eigenvalues: 
  0.122  0.122  0.125  0.341  0.341
    eigenvectors:
  0.000  0.000  1.000  0.000  0.000
  0.030  0.365  0.000  0.005  0.600
  0.365  0.030  0.000  0.600  0.005
  0.157  0.448  0.000  0.174  0.221
  0.448  0.157  0.000  0.221  0.174
    occupations:
  0.125 -0.000 -0.000 -0.000 -0.000
 -0.000  0.254 -0.000  0.073  0.078
 -0.000 -0.000  0.254  0.078 -0.073
 -0.000  0.073  0.078  0.208  0.000
 -0.000  0.078 -0.073  0.000  0.208
atomic mag. moment =   3.92628
N of occupied +U levels =   36.146867
 --- exit write_ns ---
 Atomic wfc used for LDA+U Projector are NOT orthogonalized
     Starting wfcs are  204 randomized atomic wfcs

     Band Structure Calculation
     CG style diagonalization

     Computing kpt #:     1  of   152
     c_bands:  4 eigenvalues not converged
     total cpu time spent up to now is      583.1 secs

     Computing kpt #:     2  of   152
     total cpu time spent up to now is      819.9 secs

     Computing kpt #:     3  of   152
     total cpu time spent up to now is     1053.7 secs

     Computing kpt #:     4  of   152
     c_bands:  1 eigenvalues not converged
     total cpu time spent up to now is     1326.4 secs

     Computing kpt #:     5  of   152
     c_bands:  1 eigenvalues not converged
     total cpu time spent up to now is     1602.8 secs

     Computing kpt #:     6  of   152
     c_bands:  2 eigenvalues not converged
     total cpu time spent up to now is     1878.6 secs

     Computing kpt #:     7  of   152
     total cpu time spent up to now is     2151.5 secs

     Computing kpt #:     8  of   152
     c_bands:  1 eigenvalues not converged
     total cpu time spent up to now is     2424.4 secs

     Computing kpt #:     9  of   152
     c_bands:  1 eigenvalues not converged
     total cpu time spent up to now is     2699.7 secs

     Computing kpt #:    10  of   152
     c_bands:  1 eigenvalues not converged
     total cpu time spent up to now is     2973.6 secs

     Computing kpt #:    11  of   152
     total cpu time spent up to now is     3213.4 secs

     Computing kpt #:    12  of   152
     c_bands:  1 eigenvalues not converged
     total cpu time spent up to now is     3488.1 secs

     Computing kpt #:    13  of   152
     total cpu time spent up to now is     3729.8 secs

     Computing kpt #:    14  of   152
     total cpu time spent up to now is     3970.4 secs

     Computing kpt #:    15  of   152
     c_bands:  1 eigenvalues not converged
     total cpu time spent up to now is     4244.0 secs

     Computing kpt #:    16  of   152
     total cpu time spent up to now is     4515.9 secs

     Computing kpt #:    17  of   152
     c_bands:  2 eigenvalues not converged
     total cpu time spent up to now is     4792.6 secs

     Computing kpt #:    18  of   152
     c_bands:  1 eigenvalues not converged
     total cpu time spent up to now is     5068.2 secs

     Computing kpt #:    19  of   152
     total cpu time spent up to now is     5321.8 secs

     Computing kpt #:    20  of   152
     total cpu time spent up to now is     5596.3 secs

     Computing kpt #:    21  of   152
     c_bands:  4 eigenvalues not converged
     total cpu time spent up to now is     5874.8 secs

     Computing kpt #:    22  of   152
     total cpu time spent up to now is     6147.0 secs

     Computing kpt #:    23  of   152
     c_bands:  1 eigenvalues not converged
     total cpu time spent up to now is     6423.0 secs

     Computing kpt #:    24  of   152
     c_bands:  1 eigenvalues not converged
     total cpu time spent up to now is     6698.1 secs

     Computing kpt #:    25  of   152
     c_bands:  1 eigenvalues not converged
     total cpu time spent up to now is     6973.6 secs

     Computing kpt #:    26  of   152
     total cpu time spent up to now is     7233.0 secs

     Computing kpt #:    27  of   152
     c_bands:  1 eigenvalues not converged
     total cpu time spent up to now is     7506.8 secs

     Computing kpt #:    28  of   152
     total cpu time spent up to now is     7764.3 secs

     Computing kpt #:    29  of   152
     total cpu time spent up to now is     8004.6 secs

     Computing kpt #:    30  of   152
     c_bands:  1 eigenvalues not converged
     total cpu time spent up to now is     8279.5 secs

     Computing kpt #:    31  of   152
     total cpu time spent up to now is     8535.4 secs

     Computing kpt #:    32  of   152
     total cpu time spent up to now is     8792.0 secs

     Computing kpt #:    33  of   152
     c_bands:  4 eigenvalues not converged
     total cpu time spent up to now is     9068.9 secs

     Computing kpt #:    34  of   152
     total cpu time spent up to now is     9324.5 secs

     Computing kpt #:    35  of   152
     total cpu time spent up to now is     9595.8 secs

     Computing kpt #:    36  of   152
     c_bands:  2 eigenvalues not converged
     total cpu time spent up to now is     9872.6 secs

     Computing kpt #:    37  of   152
     c_bands:  2 eigenvalues not converged
     total cpu time spent up to now is    10148.9 secs

     Computing kpt #:    38  of   152
     c_bands:  1 eigenvalues not converged
     total cpu time spent up to now is    10418.9 secs

     Computing kpt #:    39  of   152
     c_bands:  1 eigenvalues not converged
     total cpu time spent up to now is    10691.3 secs

     Computing kpt #:    40  of   152
     total cpu time spent up to now is    10947.7 secs

     Computing kpt #:    41  of   152
     c_bands:  1 eigenvalues not converged
     total cpu time spent up to now is    11226.6 secs

     Computing kpt #:    42  of   152
     c_bands:  1 eigenvalues not converged
     total cpu time spent up to now is    11502.0 secs

     Computing kpt #:    43  of   152
     c_bands:  1 eigenvalues not converged
     total cpu time spent up to now is    11775.5 secs

     Computing kpt #:    44  of   152
     total cpu time spent up to now is    12031.6 secs

     Computing kpt #:    45  of   152
     total cpu time spent up to now is    12288.5 secs

     Computing kpt #:    46  of   152
     c_bands:  1 eigenvalues not converged
     total cpu time spent up to now is    12562.8 secs

     Computing kpt #:    47  of   152
     c_bands:  2 eigenvalues not converged
     total cpu time spent up to now is    12836.2 secs

     Computing kpt #:    48  of   152
     c_bands:  2 eigenvalues not converged
     total cpu time spent up to now is    13107.5 secs

     Computing kpt #:    49  of   152
     c_bands:  2 eigenvalues not converged
     total cpu time spent up to now is    13382.5 secs

     Computing kpt #:    50  of   152
     c_bands:  2 eigenvalues not converged
     total cpu time spent up to now is    13658.8 secs

     Computing kpt #:    51  of   152
     c_bands:  1 eigenvalues not converged
     total cpu time spent up to now is    13933.7 secs

     Computing kpt #:    52  of   152
     total cpu time spent up to now is    14208.1 secs

     Computing kpt #:    53  of   152
     c_bands:  1 eigenvalues not converged
     total cpu time spent up to now is    14481.9 secs

     Computing kpt #:    54  of   152
     total cpu time spent up to now is    14758.1 secs

     Computing kpt #:    55  of   152
     c_bands:  1 eigenvalues not converged
     total cpu time spent up to now is    15029.7 secs

     Computing kpt #:    56  of   152
     c_bands:  1 eigenvalues not converged
     total cpu time spent up to now is    15304.1 secs

     Computing kpt #:    57  of   152
     c_bands:  1 eigenvalues not converged
     total cpu time spent up to now is    15577.0 secs

     Computing kpt #:    58  of   152
     total cpu time spent up to now is    15818.5 secs

     Computing kpt #:    59  of   152
     total cpu time spent up to now is    16074.8 secs

     Computing kpt #:    60  of   152
     total cpu time spent up to now is    16348.0 secs

     Computing kpt #:    61  of   152
     c_bands:  4 eigenvalues not converged
     total cpu time spent up to now is    16626.3 secs

     Computing kpt #:    62  of   152
     total cpu time spent up to now is    16900.1 secs

     Computing kpt #:    63  of   152
     c_bands:  1 eigenvalues not converged
     total cpu time spent up to now is    17175.3 secs

     Computing kpt #:    64  of   152
     total cpu time spent up to now is    17431.6 secs

     Computing kpt #:    65  of   152
     total cpu time spent up to now is    17671.1 secs

     Computing kpt #:    66  of   152
     c_bands:  1 eigenvalues not converged
     total cpu time spent up to now is    17947.7 secs

     Computing kpt #:    67  of   152
     c_bands:  1 eigenvalues not converged
     total cpu time spent up to now is    18223.4 secs

     Computing kpt #:    68  of   152
     total cpu time spent up to now is    18478.4 secs

     Computing kpt #:    69  of   152
     total cpu time spent up to now is    18737.3 secs

     Computing kpt #:    70  of   152
     c_bands:  1 eigenvalues not converged
     total cpu time spent up to now is    19011.5 secs

     Computing kpt #:    71  of   152
     total cpu time spent up to now is    19266.5 secs

     Computing kpt #:    72  of   152
     total cpu time spent up to now is    19538.7 secs

     Computing kpt #:    73  of   152
     c_bands:  1 eigenvalues not converged
     total cpu time spent up to now is    19813.2 secs

     Computing kpt #:    74  of   152
     c_bands:  1 eigenvalues not converged
     total cpu time spent up to now is    20090.9 secs

     Computing kpt #:    75  of   152
     total cpu time spent up to now is    20349.6 secs

     Computing kpt #:    76  of   152
     total cpu time spent up to now is    20591.3 secs

     Computing kpt #:    77  of   152
     c_bands:  4 eigenvalues not converged
     total cpu time spent up to now is    20862.7 secs

     Computing kpt #:    78  of   152
     total cpu time spent up to now is    21094.8 secs

     Computing kpt #:    79  of   152
     total cpu time spent up to now is    21308.9 secs

     Computing kpt #:    80  of   152
     c_bands:  1 eigenvalues not converged
     total cpu time spent up to now is    21580.9 secs

     Computing kpt #:    81  of   152
     c_bands:  1 eigenvalues not converged
     total cpu time spent up to now is    21857.2 secs

     Computing kpt #:    82  of   152
     c_bands:  1 eigenvalues not converged
     total cpu time spent up to now is    22130.5 secs

     Computing kpt #:    83  of   152
     total cpu time spent up to now is    22404.6 secs

     Computing kpt #:    84  of   152
     c_bands:  1 eigenvalues not converged
     total cpu time spent up to now is    22678.2 secs

     Computing kpt #:    85  of   152
     c_bands:  1 eigenvalues not converged
     total cpu time spent up to now is    22952.7 secs

     Computing kpt #:    86  of   152
     c_bands:  1 eigenvalues not converged
     total cpu time spent up to now is    23226.5 secs

     Computing kpt #:    87  of   152
     total cpu time spent up to now is    23482.2 secs

     Computing kpt #:    88  of   152
     c_bands:  1 eigenvalues not converged
     total cpu time spent up to now is    23757.1 secs

     Computing kpt #:    89  of   152
     total cpu time spent up to now is    24014.7 secs

     Computing kpt #:    90  of   152
     total cpu time spent up to now is    24271.7 secs

     Computing kpt #:    91  of   152
     c_bands:  1 eigenvalues not converged
     total cpu time spent up to now is    24544.6 secs

     Computing kpt #:    92  of   152
     c_bands:  1 eigenvalues not converged
     total cpu time spent up to now is    24817.8 secs

     Computing kpt #:    93  of   152
     c_bands:  2 eigenvalues not converged
     total cpu time spent up to now is    25095.6 secs

     Computing kpt #:    94  of   152
     c_bands:  1 eigenvalues not converged
     total cpu time spent up to now is    25371.3 secs

     Computing kpt #:    95  of   152
     total cpu time spent up to now is    25610.9 secs

     Computing kpt #:    96  of   152
     total cpu time spent up to now is    25868.9 secs

     Computing kpt #:    97  of   152
     c_bands:  3 eigenvalues not converged
     total cpu time spent up to now is    26145.1 secs

     Computing kpt #:    98  of   152
     total cpu time spent up to now is    26401.3 secs

     Computing kpt #:    99  of   152
     c_bands:  1 eigenvalues not converged
     total cpu time spent up to now is    26674.7 secs

     Computing kpt #:   100  of   152
     c_bands:  1 eigenvalues not converged
     total cpu time spent up to now is    26948.9 secs

     Computing kpt #:   101  of   152
     total cpu time spent up to now is    27221.1 secs

     Computing kpt #:   102  of   152
     total cpu time spent up to now is    27477.2 secs

     Computing kpt #:   103  of   152
     total cpu time spent up to now is    27752.5 secs

     Computing kpt #:   104  of   152
     total cpu time spent up to now is    28012.7 secs

     Computing kpt #:   105  of   152
     c_bands:  1 eigenvalues not converged
     total cpu time spent up to now is    28287.9 secs

     Computing kpt #:   106  of   152
     c_bands:  1 eigenvalues not converged
     total cpu time spent up to now is    28562.3 secs

     Computing kpt #:   107  of   152
     total cpu time spent up to now is    28802.7 secs

     Computing kpt #:   108  of   152
     c_bands:  1 eigenvalues not converged
     total cpu time spent up to now is    29077.6 secs

     Computing kpt #:   109  of   152
     c_bands:  4 eigenvalues not converged
     total cpu time spent up to now is    29355.3 secs

     Computing kpt #:   110  of   152
     total cpu time spent up to now is    29629.7 secs

     Computing kpt #:   111  of   152
     c_bands:  1 eigenvalues not converged
     total cpu time spent up to now is    29902.3 secs

     Computing kpt #:   112  of   152
     c_bands:  1 eigenvalues not converged
     total cpu time spent up to now is    30178.6 secs

     Computing kpt #:   113  of   152
     c_bands:  1 eigenvalues not converged
     total cpu time spent up to now is    30452.6 secs

     Computing kpt #:   114  of   152
     c_bands:  1 eigenvalues not converged
     total cpu time spent up to now is    30726.0 secs

     Computing kpt #:   115  of   152
     c_bands:  1 eigenvalues not converged
     total cpu time spent up to now is    30997.3 secs

     Computing kpt #:   116  of   152
     total cpu time spent up to now is    31236.5 secs

     Computing kpt #:   117  of   152
     c_bands:  1 eigenvalues not converged
     total cpu time spent up to now is    31511.9 secs

     Computing kpt #:   118  of   152
     c_bands:  1 eigenvalues not converged
     total cpu time spent up to now is    31788.9 secs

     Computing kpt #:   119  of   152
     c_bands:  1 eigenvalues not converged
     total cpu time spent up to now is    32064.4 secs

     Computing kpt #:   120  of   152
     total cpu time spent up to now is    32322.3 secs

     Computing kpt #:   121  of   152
     total cpu time spent up to now is    32596.7 secs

     Computing kpt #:   122  of   152
     total cpu time spent up to now is    32872.2 secs

     Computing kpt #:   123  of   152
     c_bands:  2 eigenvalues not converged
     total cpu time spent up to now is    33147.0 secs

     Computing kpt #:   124  of   152
     c_bands:  2 eigenvalues not converged
     total cpu time spent up to now is    33421.9 secs

     Computing kpt #:   125  of   152
     c_bands:  2 eigenvalues not converged
     total cpu time spent up to now is    33697.9 secs

     Computing kpt #:   126  of   152
     c_bands:  2 eigenvalues not converged
     total cpu time spent up to now is    33971.9 secs

     Computing kpt #:   127  of   152
     c_bands:  1 eigenvalues not converged
     total cpu time spent up to now is    34245.0 secs

     Computing kpt #:   128  of   152
     c_bands:  1 eigenvalues not converged
     total cpu time spent up to now is    34516.5 secs

     Computing kpt #:   129  of   152
     total cpu time spent up to now is    34787.8 secs

     Computing kpt #:   130  of   152
     total cpu time spent up to now is    35043.4 secs

     Computing kpt #:   131  of   152
     c_bands:  1 eigenvalues not converged
     total cpu time spent up to now is    35314.6 secs

     Computing kpt #:   132  of   152
     c_bands:  1 eigenvalues not converged
     total cpu time spent up to now is    35589.4 secs

     Computing kpt #:   133  of   152
     c_bands:  1 eigenvalues not converged
     total cpu time spent up to now is    35862.8 secs

     Computing kpt #:   134  of   152
     total cpu time spent up to now is    36101.8 secs

     Computing kpt #:   135  of   152
     total cpu time spent up to now is    36355.6 secs

     Computing kpt #:   136  of   152
     total cpu time spent up to now is    36613.0 secs

     Computing kpt #:   137  of   152
     c_bands:  4 eigenvalues not converged
     total cpu time spent up to now is    36903.4 secs

     Computing kpt #:   138  of   152
     total cpu time spent up to now is    37202.8 secs

     Computing kpt #:   139  of   152
     c_bands:  1 eigenvalues not converged
     total cpu time spent up to now is    37515.4 secs

     Computing kpt #:   140  of   152
     total cpu time spent up to now is    37826.4 secs

     Computing kpt #:   141  of   152
     total cpu time spent up to now is    38080.8 secs

     Computing kpt #:   142  of   152
     total cpu time spent up to now is    38404.1 secs

     Computing kpt #:   143  of   152
     c_bands:  1 eigenvalues not converged
     total cpu time spent up to now is    38709.7 secs

     Computing kpt #:   144  of   152
     total cpu time spent up to now is    38993.2 secs

     Computing kpt #:   145  of   152
     total cpu time spent up to now is    39269.2 secs

     Computing kpt #:   146  of   152
     c_bands:  1 eigenvalues not converged
     total cpu time spent up to now is    39568.2 secs

     Computing kpt #:   147  of   152
     total cpu time spent up to now is    39843.5 secs

     Computing kpt #:   148  of   152
     c_bands:  1 eigenvalues not converged
     total cpu time spent up to now is    40138.7 secs

     Computing kpt #:   149  of   152
     c_bands:  1 eigenvalues not converged
     total cpu time spent up to now is    40429.9 secs

     Computing kpt #:   150  of   152
     c_bands:  1 eigenvalues not converged
     total cpu time spent up to now is    40738.2 secs

     Computing kpt #:   151  of   152
     total cpu time spent up to now is    41020.6 secs

     Computing kpt #:   152  of   152
     total cpu time spent up to now is    41286.1 secs

     ethr =  3.40E-11,  avg # of iterations = 47.6

     total cpu time spent up to now is    41286.5 secs

     End of band structure calculation

 ------ SPIN UP ------------


          k = 0.0000 0.0000 0.0000 ( 10359 PWs)   bands (ev):

   -78.9421 -78.9409 -78.9394 -73.8049 -73.8030 -73.8017 -44.9604 -44.9591
   -44.9571 -44.8860 -44.8859 -44.8847 -44.8847 -44.8836 -44.8836 -39.9521
   -39.9508 -39.9494 -39.8989 -39.8989 -39.8968 -39.8968 -39.8955 -39.8955
   -10.4569 -10.4569 -10.4158 -10.4158 -10.4147 -10.4147 -10.3845 -10.3650
   -10.3650 -10.3630 -10.3626 -10.3586 -10.3586 -10.3581 -10.3581 -10.3186
   -10.3185 -10.3108 -10.3108 -10.3106 -10.3106 -10.2989 -10.2989 -10.2975
   -10.2855 -10.2855 -10.2854 -10.2854 -10.2586 -10.2586  -7.1685  -6.7534
    -6.7502  -5.7915  -5.7898  -5.2870  -5.2870  -5.2800  -5.2799  -5.2333
    -5.2236  -5.2235  -5.0621  -5.0620  -4.9950  -4.9949  -4.9479  -4.9479
     1.8274   1.9012   1.9017   2.6719   2.6735   3.5308   4.7128   4.7128
     4.8792   4.8793   4.9038   4.9039   5.1645   5.1645   5.1753   5.1753
     5.2187   5.2525   5.2525   5.3344   5.3366   5.6192   6.4022   6.4048
     6.7271   6.7271   6.8626   6.9806   6.9806   7.0023   7.0023   7.5608
     7.5616   7.5787   7.5787   7.7111   7.7112   7.8008   8.1763   8.1763
     8.5379   8.5404   8.9429   8.9429   9.2608   9.2609   9.4157   9.4157
     9.4943   9.4943   9.5957   9.5958   9.6130   9.6134  10.2383  10.2383
    10.2893  10.2893  10.3465  10.3466  10.3552  10.6607  10.6607  10.8459
    11.0865  11.0865  11.1349  11.1635  11.1639  11.3676  11.3676  11.5020
    11.5041  11.5570  11.5571  14.1157  14.1165  14.2610  14.2610  14.2746
    14.2985  14.2985  14.3635  14.3635  15.0840  15.0840  15.1954  15.1954
    15.3912  15.3912  15.8701  15.8713  16.1697  16.1722  17.3779  17.3780
    17.4020  17.4020  17.4817  17.4817  17.8861  17.9133  17.9134  17.9501

     occupation numbers 
     1.0000   1.0000   1.0000   1.0000   1.0000   1.0000   1.0000   1.0000
     1.0000   1.0000   1.0000   1.0000   1.0000   1.0000   1.0000   1.0000
     1.0000   1.0000   1.0000   1.0000   1.0000   1.0000   1.0000   1.0000
     1.0000   1.0000   1.0000   1.0000   1.0000   1.0000   1.0000   1.0000
     1.0000   1.0000   1.0000   1.0000   1.0000   1.0000   1.0000   1.0000
     1.0000   1.0000   1.0000   1.0000   1.0000   1.0000   1.0000   1.0000
     1.0000   1.0000   1.0000   1.0000   1.0000   1.0000   1.0000   1.0000
     1.0000   1.0000   1.0000   1.0000   1.0000   1.0000   1.0000   1.0000
     1.0000   1.0000   1.0000   1.0000   1.0000   1.0000   1.0000   1.0000
     1.0000   1.0000   1.0000   1.0000   1.0000   1.0000   1.0000   1.0000
     1.0000   1.0000   1.0000   1.0000   1.0000   1.0000   1.0000   1.0000
     1.0000   1.0000   1.0000   1.0000   1.0000   1.0000   1.0000   1.0000
     1.0000   1.0000   1.0000   1.0000   1.0000   1.0000   1.0000   1.0000
     1.0000   1.0000   1.0000   1.0000   1.0000   1.0000   1.0000   1.0000
     1.0000   1.0000   1.0000   1.0000   1.0000   1.0000   1.0000   1.0000
     1.0000   1.0000   1.0000   1.0000   1.0000   1.0000   1.0000   1.0000
     1.0000   1.0000   1.0000   1.0000   1.0000   1.0000   1.0000   1.0000
     1.0000   1.0000   1.0000   1.0000   1.0000   1.0000   1.0000   1.0000
     1.0000   1.0000   1.0000   0.0000   0.0000   0.0000   0.0000   0.0000
     0.0000   0.0000   0.0000   0.0000   0.0000   0.0000   0.0000   0.0000
     0.0000   0.0000   0.0000   0.0000   0.0000   0.0000   0.0000   0.0000
     0.0000   0.0000   0.0000   0.0000   0.0000   0.0000   0.0000   0.0000

          k = 0.0000 0.0000 0.1017 ( 10360 PWs)   bands (ev):

   -78.9421 -78.9409 -78.9394 -73.8049 -73.8030 -73.8017 -44.9604 -44.9591
   -44.9571 -44.8860 -44.8859 -44.8847 -44.8847 -44.8836 -44.8836 -39.9521
   -39.9508 -39.9494 -39.8989 -39.8989 -39.8968 -39.8968 -39.8955 -39.8955
   -10.4541 -10.4536 -10.4325 -10.4315 -10.3973 -10.3965 -10.3828 -10.3719
   -10.3654 -10.3650 -10.3640 -10.3637 -10.3586 -10.3582 -10.3522 -10.3290
   -10.3102 -10.3100 -10.3095 -10.3073 -10.3071 -10.3000 -10.2999 -10.2990
   -10.2957 -10.2955 -10.2753 -10.2753 -10.2605 -10.2605  -7.1412  -6.9285
    -6.5391  -6.0368  -5.5678  -5.2959  -5.2910  -5.2735  -5.2700  -5.2655
    -5.2331  -5.2288  -5.0695  -5.0344  -5.0260  -4.9690  -4.9666  -4.9408
     1.8247   1.8440   2.0081   2.4086   2.9632   3.4514   4.7262   4.7388
     4.8341   4.8590   4.9032   4.9195   5.1228   5.1441   5.2000   5.2188
     5.2256   5.2294   5.2741   5.2835   5.3740   5.6870   6.1118   6.6985
     6.7341   6.7668   6.8936   6.9079   6.9505   7.0453   7.0764   7.4204
     7.5080   7.5514   7.6175   7.6549   7.8642   7.8696   7.9675   8.2699
     8.3143   8.6463   8.8446   9.0030   9.3164   9.3413   9.3802   9.4250
     9.4408   9.5719   9.5829   9.6625   9.6876   9.8195  10.0932  10.1078
    10.1578  10.1622  10.2661  10.4640  10.4985  10.6361  10.6508  10.8705
    11.0438  11.0676  11.1735  11.2063  11.2427  11.2730  11.3647  11.4770
    11.4806  11.5853  11.6478  14.0322  14.1871  14.2470  14.2650  14.2716
    14.2903  14.3254  14.3506  14.3616  15.0463  15.1117  15.1606  15.2857
    15.3390  15.3982  15.4188  15.7819  16.4934  16.7088  17.3616  17.3985
    17.4475  17.4531  17.4585  17.4723  17.6701  17.7346  17.7560  17.7576

     occupation numbers 
     1.0000   1.0000   1.0000   1.0000   1.0000   1.0000   1.0000   1.0000
     1.0000   1.0000   1.0000   1.0000   1.0000   1.0000   1.0000   1.0000
     1.0000   1.0000   1.0000   1.0000   1.0000   1.0000   1.0000   1.0000
     1.0000   1.0000   1.0000   1.0000   1.0000   1.0000   1.0000   1.0000
     1.0000   1.0000   1.0000   1.0000   1.0000   1.0000   1.0000   1.0000
     1.0000   1.0000   1.0000   1.0000   1.0000   1.0000   1.0000   1.0000
     1.0000   1.0000   1.0000   1.0000   1.0000   1.0000   1.0000   1.0000
     1.0000   1.0000   1.0000   1.0000   1.0000   1.0000   1.0000   1.0000
     1.0000   1.0000   1.0000   1.0000   1.0000   1.0000   1.0000   1.0000
     1.0000   1.0000   1.0000   1.0000   1.0000   1.0000   1.0000   1.0000
     1.0000   1.0000   1.0000   1.0000   1.0000   1.0000   1.0000   1.0000
     1.0000   1.0000   1.0000   1.0000   1.0000   1.0000   1.0000   1.0000
     1.0000   1.0000   1.0000   1.0000   1.0000   1.0000   1.0000   1.0000
     1.0000   1.0000   1.0000   1.0000   1.0000   1.0000   1.0000   1.0000
     1.0000   1.0000   1.0000   1.0000   1.0000   1.0000   1.0000   1.0000
     1.0000   1.0000   1.0000   1.0000   1.0000   1.0000   1.0000   1.0000
     1.0000   1.0000   1.0000   1.0000   1.0000   1.0000   1.0000   1.0000
     1.0000   1.0000   1.0000   1.0000   1.0000   1.0000   1.0000   1.0000
     1.0000   1.0000   1.0000   0.0000   0.0000   0.0000   0.0000   0.0000
     0.0000   0.0000   0.0000   0.0000   0.0000   0.0000   0.0000   0.0000
     0.0000   0.0000   0.0000   0.0000   0.0000   0.0000   0.0000   0.0000
     0.0000   0.0000   0.0000   0.0000   0.0000   0.0000   0.0000   0.0000

          k = 0.0000 0.0000-0.2034 ( 10348 PWs)   bands (ev):

   -78.9421 -78.9409 -78.9394 -73.8049 -73.8030 -73.8017 -44.9604 -44.9591
   -44.9571 -44.8860 -44.8859 -44.8847 -44.8847 -44.8836 -44.8836 -39.9521
   -39.9508 -39.9495 -39.8989 -39.8989 -39.8968 -39.8968 -39.8955 -39.8955
   -10.4459 -10.4459 -10.4446 -10.4446 -10.3808 -10.3808 -10.3794 -10.3784
   -10.3773 -10.3773 -10.3617 -10.3617 -10.3607 -10.3607 -10.3413 -10.3398
   -10.3051 -10.3051 -10.3040 -10.3039 -10.3035 -10.3031 -10.3031 -10.3024
   -10.3024 -10.3024 -10.2669 -10.2669 -10.2659 -10.2659  -7.0608  -7.0594
    -6.3395  -6.2485  -5.3900  -5.3886  -5.2969  -5.2968  -5.2496  -5.2494
    -5.2476  -5.2475  -5.0542  -5.0542  -4.9995  -4.9993  -4.9479  -4.9478
     1.8239   1.8249   2.1315   2.2300   3.2412   3.2421   4.7736   4.7736
     4.7951   4.7951   4.9161   4.9161   5.1202   5.1203   5.2151   5.2151
     5.2374   5.2389   5.2685   5.2685   5.3879   5.8630   5.8643   6.7939
     6.7940   6.8334   6.8334   6.8619   7.0865   7.0865   7.1697   7.1710
     7.4135   7.5658   7.5658   7.7858   7.7859   8.0355   8.0369   8.1098
     8.1098   8.7556   8.7556   9.0700   9.2603   9.3501   9.3502   9.4463
     9.4463   9.7151   9.7151   9.8094   9.8095   9.9394   9.9394  10.0151
    10.0151  10.0563  10.0570  10.5798  10.5798  10.5986  10.5987  10.9394
    10.9409  11.1330  11.1331  11.2569  11.2585  11.3210  11.3542  11.3543
    11.5581  11.5581  11.7148  13.9882  14.2354  14.2367  14.2518  14.2518
    14.3239  14.3239  14.3477  14.3477  15.0569  15.0569  15.2535  15.2544
    15.2545  15.3596  15.3596  15.6390  17.1434  17.1448  17.2819  17.2828
    17.3945  17.3945  17.4326  17.4326  17.5495  17.5495  17.6108  17.6108

     occupation numbers 
     1.0000   1.0000   1.0000   1.0000   1.0000   1.0000   1.0000   1.0000
     1.0000   1.0000   1.0000   1.0000   1.0000   1.0000   1.0000   1.0000
     1.0000   1.0000   1.0000   1.0000   1.0000   1.0000   1.0000   1.0000
     1.0000   1.0000   1.0000   1.0000   1.0000   1.0000   1.0000   1.0000
     1.0000   1.0000   1.0000   1.0000   1.0000   1.0000   1.0000   1.0000
     1.0000   1.0000   1.0000   1.0000   1.0000   1.0000   1.0000   1.0000
     1.0000   1.0000   1.0000   1.0000   1.0000   1.0000   1.0000   1.0000
     1.0000   1.0000   1.0000   1.0000   1.0000   1.0000   1.0000   1.0000
     1.0000   1.0000   1.0000   1.0000   1.0000   1.0000   1.0000   1.0000
     1.0000   1.0000   1.0000   1.0000   1.0000   1.0000   1.0000   1.0000
     1.0000   1.0000   1.0000   1.0000   1.0000   1.0000   1.0000   1.0000
     1.0000   1.0000   1.0000   1.0000   1.0000   1.0000   1.0000   1.0000
     1.0000   1.0000   1.0000   1.0000   1.0000   1.0000   1.0000   1.0000
     1.0000   1.0000   1.0000   1.0000   1.0000   1.0000   1.0000   1.0000
     1.0000   1.0000   1.0000   1.0000   1.0000   1.0000   1.0000   1.0000
     1.0000   1.0000   1.0000   1.0000   1.0000   1.0000   1.0000   1.0000
     1.0000   1.0000   1.0000   1.0000   1.0000   1.0000   1.0000   1.0000
     1.0000   1.0000   1.0000   1.0000   1.0000   1.0000   1.0000   1.0000
     1.0000   1.0000   1.0000   0.0000   0.0000   0.0000   0.0000   0.0000
     0.0000   0.0000   0.0000   0.0000   0.0000   0.0000   0.0000   0.0000
     0.0000   0.0000   0.0000   0.0000   0.0000   0.0000   0.0000   0.0000
     0.0000   0.0000   0.0000   0.0000   0.0000   0.0000   0.0000   0.0000

          k = 0.0000 0.1925 0.0000 ( 10362 PWs)   bands (ev):

   -78.9421 -78.9409 -78.9394 -73.8049 -73.8030 -73.8017 -44.9604 -44.9591
   -44.9571 -44.8860 -44.8859 -44.8847 -44.8847 -44.8836 -44.8836 -39.9521
   -39.9508 -39.9495 -39.8989 -39.8989 -39.8968 -39.8968 -39.8955 -39.8955
   -10.4517 -10.4441 -10.4335 -10.4259 -10.3957 -10.3904 -10.3820 -10.3735
   -10.3732 -10.3617 -10.3608 -10.3604 -10.3594 -10.3438 -10.3425 -10.3251
   -10.3212 -10.3192 -10.3142 -10.3049 -10.3033 -10.3027 -10.3018 -10.2994
   -10.2991 -10.2978 -10.2781 -10.2737 -10.2682 -10.2626  -7.0718  -6.6758
    -6.6695  -5.8004  -5.7692  -5.4368  -5.3658  -5.3547  -5.3002  -5.2574
    -5.2345  -5.1529  -5.1110  -5.0961  -4.9900  -4.9845  -4.9817  -4.9742
     1.8023   1.8537   1.8996   2.5470   2.5954   3.2400   4.7562   4.8191
     4.9082   4.9144   4.9742   4.9766   5.0571   5.1363   5.1404   5.1667
     5.1954   5.2427   5.3436   5.4172   5.4352   5.7680   6.4054   6.4109
     6.7223   6.9104   7.0016   7.0888   7.0951   7.2714   7.3308   7.3773
     7.4787   7.5376   7.8017   7.8747   7.8794   8.1279   8.1488   8.1925
     8.6823   8.6884   8.8755   8.9073   9.2132   9.2629   9.2787   9.3512
     9.4006   9.4156   9.5763   9.7217   9.8302   9.8311   9.9365  10.1313
    10.1365  10.1424  10.2067  10.2499  10.3112  10.3271  10.5339  10.7373
    10.8293  10.8825  11.0755  11.2654  11.2937  11.3892  11.4443  11.4559
    11.5364  11.7200  11.7637  14.1553  14.1607  14.2536  14.2675  14.2935
    14.3160  14.3436  14.3839  14.3890  14.9189  14.9982  15.1600  15.2503
    15.2560  15.3324  15.7485  15.8626  16.1461  16.2001  16.8934  17.0834
    17.1387  17.2000  17.3713  17.4789  17.5251  17.5725  17.7902  17.9507

     occupation numbers 
     1.0000   1.0000   1.0000   1.0000   1.0000   1.0000   1.0000   1.0000
     1.0000   1.0000   1.0000   1.0000   1.0000   1.0000   1.0000   1.0000
     1.0000   1.0000   1.0000   1.0000   1.0000   1.0000   1.0000   1.0000
     1.0000   1.0000   1.0000   1.0000   1.0000   1.0000   1.0000   1.0000
     1.0000   1.0000   1.0000   1.0000   1.0000   1.0000   1.0000   1.0000
     1.0000   1.0000   1.0000   1.0000   1.0000   1.0000   1.0000   1.0000
     1.0000   1.0000   1.0000   1.0000   1.0000   1.0000   1.0000   1.0000
     1.0000   1.0000   1.0000   1.0000   1.0000   1.0000   1.0000   1.0000
     1.0000   1.0000   1.0000   1.0000   1.0000   1.0000   1.0000   1.0000
     1.0000   1.0000   1.0000   1.0000   1.0000   1.0000   1.0000   1.0000
     1.0000   1.0000   1.0000   1.0000   1.0000   1.0000   1.0000   1.0000
     1.0000   1.0000   1.0000   1.0000   1.0000   1.0000   1.0000   1.0000
     1.0000   1.0000   1.0000   1.0000   1.0000   1.0000   1.0000   1.0000
     1.0000   1.0000   1.0000   1.0000   1.0000   1.0000   1.0000   1.0000
     1.0000   1.0000   1.0000   1.0000   1.0000   1.0000   1.0000   1.0000
     1.0000   1.0000   1.0000   1.0000   1.0000   1.0000   1.0000   1.0000
     1.0000   1.0000   1.0000   1.0000   1.0000   1.0000   1.0000   1.0000
     1.0000   1.0000   1.0000   1.0000   1.0000   1.0000   1.0000   1.0000
     1.0000   1.0000   1.0000   0.0000   0.0000   0.0000   0.0000   0.0000
     0.0000   0.0000   0.0000   0.0000   0.0000   0.0000   0.0000   0.0000
     0.0000   0.0000   0.0000   0.0000   0.0000   0.0000   0.0000   0.0000
     0.0000   0.0000   0.0000   0.0000   0.0000   0.0000   0.0000   0.0000

          k = 0.0000 0.1925 0.1017 ( 10359 PWs)   bands (ev):

   -78.9421 -78.9409 -78.9394 -73.8049 -73.8030 -73.8017 -44.9604 -44.9591
   -44.9571 -44.8860 -44.8859 -44.8847 -44.8847 -44.8836 -44.8836 -39.9521
   -39.9508 -39.9495 -39.8989 -39.8989 -39.8968 -39.8968 -39.8955 -39.8955
   -10.4549 -10.4374 -10.4360 -10.4185 -10.4137 -10.3830 -10.3808 -10.3722
   -10.3697 -10.3666 -10.3639 -10.3556 -10.3522 -10.3488 -10.3458 -10.3285
   -10.3188 -10.3180 -10.3084 -10.3072 -10.3064 -10.3040 -10.3037 -10.3007
   -10.2979 -10.2884 -10.2838 -10.2743 -10.2706 -10.2594  -7.0460  -6.8393
    -6.4755  -5.9931  -5.6323  -5.4234  -5.3442  -5.3339  -5.3204  -5.2928
    -5.2199  -5.1747  -5.0906  -5.0879  -5.0201  -5.0094  -4.9626  -4.9602
     1.7922   1.8390   1.9553   2.3663   2.7910   3.1930   4.7580   4.8557
     4.8606   4.9084   4.9792   4.9836   5.0974   5.1015   5.1366   5.1589
     5.1783   5.2644   5.3534   5.3756   5.4593   5.8421   6.1717   6.6075
     6.7737   6.8541   6.9685   7.0960   7.1402   7.2154   7.3602   7.3691
     7.4601   7.5942   7.6579   7.8978   7.9798   8.0792   8.1610   8.3455
     8.5157   8.6298   8.8529   9.0179   9.1694   9.2789   9.2907   9.3136
     9.3397   9.5154   9.5607   9.7642   9.8212   9.8858   9.9798  10.0097
    10.0672  10.1669  10.2043  10.2578  10.3441  10.3965  10.5329  10.7284
    10.8131  10.9279  10.9700  11.2353  11.2459  11.3913  11.4882  11.5820
    11.5895  11.6453  11.7561  14.0905  14.2169  14.2566  14.2671  14.2765
    14.3305  14.3437  14.3728  14.3849  14.9059  15.0507  15.1486  15.1693
    15.2508  15.3836  15.4894  15.8664  16.2496  16.5356  16.7711  17.0119
    17.2316  17.2547  17.3680  17.5721  17.5834  17.6571  17.6741  17.8150

     occupation numbers 
     1.0000   1.0000   1.0000   1.0000   1.0000   1.0000   1.0000   1.0000
     1.0000   1.0000   1.0000   1.0000   1.0000   1.0000   1.0000   1.0000
     1.0000   1.0000   1.0000   1.0000   1.0000   1.0000   1.0000   1.0000
     1.0000   1.0000   1.0000   1.0000   1.0000   1.0000   1.0000   1.0000
     1.0000   1.0000   1.0000   1.0000   1.0000   1.0000   1.0000   1.0000
     1.0000   1.0000   1.0000   1.0000   1.0000   1.0000   1.0000   1.0000
     1.0000   1.0000   1.0000   1.0000   1.0000   1.0000   1.0000   1.0000
     1.0000   1.0000   1.0000   1.0000   1.0000   1.0000   1.0000   1.0000
     1.0000   1.0000   1.0000   1.0000   1.0000   1.0000   1.0000   1.0000
     1.0000   1.0000   1.0000   1.0000   1.0000   1.0000   1.0000   1.0000
     1.0000   1.0000   1.0000   1.0000   1.0000   1.0000   1.0000   1.0000
     1.0000   1.0000   1.0000   1.0000   1.0000   1.0000   1.0000   1.0000
     1.0000   1.0000   1.0000   1.0000   1.0000   1.0000   1.0000   1.0000
     1.0000   1.0000   1.0000   1.0000   1.0000   1.0000   1.0000   1.0000
     1.0000   1.0000   1.0000   1.0000   1.0000   1.0000   1.0000   1.0000
     1.0000   1.0000   1.0000   1.0000   1.0000   1.0000   1.0000   1.0000
     1.0000   1.0000   1.0000   1.0000   1.0000   1.0000   1.0000   1.0000
     1.0000   1.0000   1.0000   1.0000   1.0000   1.0000   1.0000   1.0000
     1.0000   1.0000   1.0000   0.0000   0.0000   0.0000   0.0000   0.0000
     0.0000   0.0000   0.0000   0.0000   0.0000   0.0000   0.0000   0.0000
     0.0000   0.0000   0.0000   0.0000   0.0000   0.0000   0.0000   0.0000
     0.0000   0.0000   0.0000   0.0000   0.0000   0.0000   0.0000   0.0000

          k = 0.0000 0.1925-0.2034 ( 10376 PWs)   bands (ev):

   -78.9421 -78.9409 -78.9394 -73.8049 -73.8030 -73.8017 -44.9604 -44.9591
   -44.9571 -44.8860 -44.8859 -44.8847 -44.8847 -44.8836 -44.8836 -39.9521
   -39.9508 -39.9495 -39.8989 -39.8989 -39.8968 -39.8968 -39.8955 -39.8955
   -10.4527 -10.4444 -10.4301 -10.4239 -10.4020 -10.3967 -10.3778 -10.3763
   -10.3646 -10.3638 -10.3614 -10.3569 -10.3517 -10.3506 -10.3419 -10.3375
   -10.3138 -10.3129 -10.3116 -10.3109 -10.3079 -10.3035 -10.3027 -10.2982
   -10.2953 -10.2938 -10.2822 -10.2785 -10.2662 -10.2604  -6.9689  -6.9661
    -6.2893  -6.1916  -5.5291  -5.4584  -5.3474  -5.3386  -5.2997  -5.2802
    -5.2183  -5.2148  -5.0677  -5.0643  -5.0538  -5.0290  -4.9580  -4.9513
     1.7855   1.8138   2.0964   2.1797   3.0137   3.0461   4.8094   4.8107
     4.9139   4.9168   4.9236   4.9672   5.0405   5.1034   5.1604   5.1871
     5.1914   5.2535   5.3441   5.3735   5.4674   5.9609   5.9982   6.7069
     6.8635   6.8716   6.9418   6.9856   7.1929   7.2184   7.2625   7.3341
     7.4867   7.5590   7.6928   7.9711   8.0048   8.0828   8.2821   8.2901
     8.3182   8.6841   8.7505   9.1425   9.1990   9.2625   9.2628   9.3203
     9.3440   9.5981   9.6434   9.7340   9.7432   9.8371   9.9867   9.9978
    10.0441  10.0996  10.2541  10.2779  10.3146  10.4691  10.5099  10.7021
    10.8249  10.9340  11.0105  11.1637  11.2382  11.4069  11.4779  11.5459
    11.6447  11.6926  11.7514  14.0585  14.2459  14.2502  14.2580  14.2801
    14.3359  14.3594  14.3633  14.3650  14.9344  15.0654  15.0760  15.1388
    15.3053  15.3871  15.4183  15.7381  16.4940  16.5912  16.8685  17.0291
    17.0654  17.2551  17.4744  17.5059  17.6007  17.6081  17.7465  17.8010

     occupation numbers 
     1.0000   1.0000   1.0000   1.0000   1.0000   1.0000   1.0000   1.0000
     1.0000   1.0000   1.0000   1.0000   1.0000   1.0000   1.0000   1.0000
     1.0000   1.0000   1.0000   1.0000   1.0000   1.0000   1.0000   1.0000
     1.0000   1.0000   1.0000   1.0000   1.0000   1.0000   1.0000   1.0000
     1.0000   1.0000   1.0000   1.0000   1.0000   1.0000   1.0000   1.0000
     1.0000   1.0000   1.0000   1.0000   1.0000   1.0000   1.0000   1.0000
     1.0000   1.0000   1.0000   1.0000   1.0000   1.0000   1.0000   1.0000
     1.0000   1.0000   1.0000   1.0000   1.0000   1.0000   1.0000   1.0000
     1.0000   1.0000   1.0000   1.0000   1.0000   1.0000   1.0000   1.0000
     1.0000   1.0000   1.0000   1.0000   1.0000   1.0000   1.0000   1.0000
     1.0000   1.0000   1.0000   1.0000   1.0000   1.0000   1.0000   1.0000
     1.0000   1.0000   1.0000   1.0000   1.0000   1.0000   1.0000   1.0000
     1.0000   1.0000   1.0000   1.0000   1.0000   1.0000   1.0000   1.0000
     1.0000   1.0000   1.0000   1.0000   1.0000   1.0000   1.0000   1.0000
     1.0000   1.0000   1.0000   1.0000   1.0000   1.0000   1.0000   1.0000
     1.0000   1.0000   1.0000   1.0000   1.0000   1.0000   1.0000   1.0000
     1.0000   1.0000   1.0000   1.0000   1.0000   1.0000   1.0000   1.0000
     1.0000   1.0000   1.0000   1.0000   1.0000   1.0000   1.0000   1.0000
     1.0000   1.0000   1.0000   0.0000   0.0000   0.0000   0.0000   0.0000
     0.0000   0.0000   0.0000   0.0000   0.0000   0.0000   0.0000   0.0000
     0.0000   0.0000   0.0000   0.0000   0.0000   0.0000   0.0000   0.0000
     0.0000   0.0000   0.0000   0.0000   0.0000   0.0000   0.0000   0.0000

          k = 0.0000 0.1925-0.1017 ( 10359 PWs)   bands (ev):

   -78.9421 -78.9409 -78.9394 -73.8049 -73.8030 -73.8017 -44.9604 -44.9591
   -44.9571 -44.8860 -44.8859 -44.8847 -44.8847 -44.8836 -44.8836 -39.9521
   -39.9508 -39.9495 -39.8989 -39.8989 -39.8968 -39.8968 -39.8955 -39.8955
   -10.4468 -10.4454 -10.4431 -10.4119 -10.4081 -10.3862 -10.3806 -10.3772
   -10.3728 -10.3644 -10.3620 -10.3575 -10.3506 -10.3458 -10.3445 -10.3321
   -10.3166 -10.3162 -10.3139 -10.3062 -10.3056 -10.3024 -10.3012 -10.3007
   -10.2998 -10.2910 -10.2869 -10.2694 -10.2653 -10.2653  -7.0449  -6.8431
    -6.4676  -6.0116  -5.5788  -5.4722  -5.3660  -5.3536  -5.2782  -5.2683
    -5.2340  -5.1772  -5.1026  -5.0794  -5.0148  -5.0106  -4.9659  -4.9577
     1.8003   1.8072   2.0049   2.3154   2.8333   3.1751   4.7797   4.8424
     4.8903   4.9290   4.9477   4.9590   5.0155   5.1316   5.1680   5.1818
     5.2078   5.2305   5.3347   5.4036   5.4527   5.8128   6.1966   6.6154
     6.7795   6.9191   6.9547   7.0632   7.1634   7.2048   7.2748   7.3334
     7.5162   7.5259   7.8014   7.9184   7.9276   8.0666   8.1831   8.3021
     8.4699   8.5781   8.9783   9.0684   9.1793   9.2608   9.2679   9.2834
     9.3601   9.5647   9.6678   9.6692   9.7832   9.8021  10.0171  10.0253
    10.0975  10.1100  10.1734  10.2622  10.3138  10.4347  10.5139  10.7244
    10.8399  10.8930  11.1235  11.1696  11.3157  11.3243  11.4397  11.5098
    11.5717  11.7484  11.7575  14.0945  14.2128  14.2434  14.2712  14.2960
    14.3198  14.3480  14.3755  14.3796  14.9741  14.9790  15.0722  15.2390
    15.3098  15.3395  15.5514  15.8460  16.1237  16.6497  16.8217  17.0767
    17.0904  17.2379  17.2488  17.4961  17.5346  17.7174  17.8133  17.8455

     occupation numbers 
     1.0000   1.0000   1.0000   1.0000   1.0000   1.0000   1.0000   1.0000
     1.0000   1.0000   1.0000   1.0000   1.0000   1.0000   1.0000   1.0000
     1.0000   1.0000   1.0000   1.0000   1.0000   1.0000   1.0000   1.0000
     1.0000   1.0000   1.0000   1.0000   1.0000   1.0000   1.0000   1.0000
     1.0000   1.0000   1.0000   1.0000   1.0000   1.0000   1.0000   1.0000
     1.0000   1.0000   1.0000   1.0000   1.0000   1.0000   1.0000   1.0000
     1.0000   1.0000   1.0000   1.0000   1.0000   1.0000   1.0000   1.0000
     1.0000   1.0000   1.0000   1.0000   1.0000   1.0000   1.0000   1.0000
     1.0000   1.0000   1.0000   1.0000   1.0000   1.0000   1.0000   1.0000
     1.0000   1.0000   1.0000   1.0000   1.0000   1.0000   1.0000   1.0000
     1.0000   1.0000   1.0000   1.0000   1.0000   1.0000   1.0000   1.0000
     1.0000   1.0000   1.0000   1.0000   1.0000   1.0000   1.0000   1.0000
     1.0000   1.0000   1.0000   1.0000   1.0000   1.0000   1.0000   1.0000
     1.0000   1.0000   1.0000   1.0000   1.0000   1.0000   1.0000   1.0000
     1.0000   1.0000   1.0000   1.0000   1.0000   1.0000   1.0000   1.0000
     1.0000   1.0000   1.0000   1.0000   1.0000   1.0000   1.0000   1.0000
     1.0000   1.0000   1.0000   1.0000   1.0000   1.0000   1.0000   1.0000
     1.0000   1.0000   1.0000   1.0000   1.0000   1.0000   1.0000   1.0000
     1.0000   1.0000   1.0000   0.0000   0.0000   0.0000   0.0000   0.0000
     0.0000   0.0000   0.0000   0.0000   0.0000   0.0000   0.0000   0.0000
     0.0000   0.0000   0.0000   0.0000   0.0000   0.0000   0.0000   0.0000
     0.0000   0.0000   0.0000   0.0000   0.0000   0.0000   0.0000   0.0000

          k = 0.0000 0.3849 0.0000 ( 10334 PWs)   bands (ev):

   -78.9421 -78.9409 -78.9394 -73.8049 -73.8030 -73.8017 -44.9604 -44.9591
   -44.9571 -44.8860 -44.8859 -44.8847 -44.8847 -44.8836 -44.8836 -39.9521
   -39.9508 -39.9495 -39.8989 -39.8989 -39.8968 -39.8968 -39.8955 -39.8955
   -10.4470 -10.4370 -10.4169 -10.4129 -10.3926 -10.3849 -10.3806 -10.3790
   -10.3640 -10.3616 -10.3534 -10.3531 -10.3479 -10.3347 -10.3320 -10.3282
   -10.3227 -10.3213 -10.3172 -10.3132 -10.3123 -10.3100 -10.3073 -10.3023
   -10.3018 -10.2965 -10.2898 -10.2841 -10.2743 -10.2654  -6.7981  -6.4889
    -6.4353  -5.9987  -5.7255  -5.7094  -5.4896  -5.3911  -5.3852  -5.3391
    -5.2944  -5.1760  -5.1192  -5.1037  -5.0733  -5.0213  -4.9897  -4.9859
     1.7332   1.8120   1.9950   2.2470   2.5033   2.7101   4.7163   4.8471
     4.8789   4.9790   4.9913   5.0898   5.1039   5.1548   5.1704   5.1736
     5.2380   5.3165   5.5014   5.5371   5.5839   6.1346   6.4497   6.5168
     6.7949   7.0861   7.1654   7.2472   7.3842   7.4236   7.4652   7.6557
     7.7169   7.8142   7.9861   8.0047   8.2120   8.2586   8.3634   8.3882
     8.7265   8.7927   8.9228   8.9433   9.0092   9.0982   9.1364   9.2987
     9.3297   9.4384   9.5689   9.6667   9.7092   9.8679   9.9193   9.9687
    10.0182  10.0514  10.0801  10.1639  10.1870  10.3071  10.4010  10.5498
    10.6632  10.8387  11.0477  11.0799  11.2506  11.2929  11.4113  11.4574
    11.6353  11.7062  11.7398  14.1886  14.2345  14.2509  14.2972  14.3043
    14.3541  14.4182  14.4338  14.4495  14.6368  14.9046  15.0089  15.0501
    15.1863  15.2763  15.4352  15.8848  16.0698  16.1710  16.3360  16.4467
    16.6346  16.6606  16.9739  17.3624  17.3745  17.4692  17.4918  17.7265

     occupation numbers 
     1.0000   1.0000   1.0000   1.0000   1.0000   1.0000   1.0000   1.0000
     1.0000   1.0000   1.0000   1.0000   1.0000   1.0000   1.0000   1.0000
     1.0000   1.0000   1.0000   1.0000   1.0000   1.0000   1.0000   1.0000
     1.0000   1.0000   1.0000   1.0000   1.0000   1.0000   1.0000   1.0000
     1.0000   1.0000   1.0000   1.0000   1.0000   1.0000   1.0000   1.0000
     1.0000   1.0000   1.0000   1.0000   1.0000   1.0000   1.0000   1.0000
     1.0000   1.0000   1.0000   1.0000   1.0000   1.0000   1.0000   1.0000
     1.0000   1.0000   1.0000   1.0000   1.0000   1.0000   1.0000   1.0000
     1.0000   1.0000   1.0000   1.0000   1.0000   1.0000   1.0000   1.0000
     1.0000   1.0000   1.0000   1.0000   1.0000   1.0000   1.0000   1.0000
     1.0000   1.0000   1.0000   1.0000   1.0000   1.0000   1.0000   1.0000
     1.0000   1.0000   1.0000   1.0000   1.0000   1.0000   1.0000   1.0000
     1.0000   1.0000   1.0000   1.0000   1.0000   1.0000   1.0000   1.0000
     1.0000   1.0000   1.0000   1.0000   1.0000   1.0000   1.0000   1.0000
     1.0000   1.0000   1.0000   1.0000   1.0000   1.0000   1.0000   1.0000
     1.0000   1.0000   1.0000   1.0000   1.0000   1.0000   1.0000   1.0000
     1.0000   1.0000   1.0000   1.0000   1.0000   1.0000   1.0000   1.0000
     1.0000   1.0000   1.0000   1.0000   1.0000   1.0000   1.0000   1.0000
     1.0000   1.0000   1.0000   0.0000   0.0000   0.0000   0.0000   0.0000
     0.0000   0.0000   0.0000   0.0000   0.0000   0.0000   0.0000   0.0000
     0.0000   0.0000   0.0000   0.0000   0.0000   0.0000   0.0000   0.0000
     0.0000   0.0000   0.0000   0.0000   0.0000   0.0000   0.0000   0.0000

          k = 0.0000 0.3849 0.1017 ( 10341 PWs)   bands (ev):

   -78.9421 -78.9409 -78.9394 -73.8049 -73.8030 -73.8017 -44.9604 -44.9591
   -44.9571 -44.8860 -44.8859 -44.8847 -44.8847 -44.8836 -44.8836 -39.9521
   -39.9508 -39.9495 -39.8989 -39.8989 -39.8968 -39.8968 -39.8955 -39.8955
   -10.4467 -10.4375 -10.4210 -10.4034 -10.3931 -10.3926 -10.3805 -10.3773
   -10.3652 -10.3588 -10.3563 -10.3525 -10.3418 -10.3414 -10.3315 -10.3256
   -10.3225 -10.3206 -10.3164 -10.3139 -10.3132 -10.3125 -10.3066 -10.3013
   -10.2992 -10.2959 -10.2952 -10.2821 -10.2730 -10.2664  -6.7801  -6.5837
    -6.3455  -5.9354  -5.8667  -5.6555  -5.5254  -5.3943  -5.3790  -5.3032
    -5.2386  -5.1720  -5.1377  -5.1184  -5.1063  -5.0056  -4.9990  -4.9779
     1.7659   1.8070   1.9274   2.3636   2.4095   2.7266   4.7072   4.8149
     4.9344   4.9886   5.0175   5.0719   5.0853   5.1333   5.1748   5.1922
     5.2427   5.2658   5.5412   5.5592   5.5632   6.1835   6.3802   6.5273
     6.8130   7.0143   7.1746   7.1978   7.3523   7.5173   7.5439   7.6150
     7.6838   7.8251   7.9357   8.1021   8.2329   8.2467   8.3191   8.4648
     8.7026   8.7750   8.8142   8.9422   9.0758   9.1183   9.1489   9.2954
     9.3627   9.4980   9.5122   9.5435   9.7483   9.8628   9.8989  10.0193
    10.0559  10.0622  10.0829  10.1644  10.1772  10.2277  10.3743  10.6075
    10.7418  10.8150  10.9512  11.1738  11.1751  11.3139  11.4071  11.4639
    11.6847  11.7015  11.7184  14.1579  14.2385  14.2716  14.2855  14.3014
    14.3498  14.4294  14.4328  14.4455  14.6667  14.8907  14.9342  15.0970
    15.1864  15.2812  15.4359  15.8830  16.0836  16.1495  16.1688  16.5672
    16.7416  16.8018  16.8554  17.2909  17.3364  17.5461  17.6151  17.6930

     occupation numbers 
     1.0000   1.0000   1.0000   1.0000   1.0000   1.0000   1.0000   1.0000
     1.0000   1.0000   1.0000   1.0000   1.0000   1.0000   1.0000   1.0000
     1.0000   1.0000   1.0000   1.0000   1.0000   1.0000   1.0000   1.0000
     1.0000   1.0000   1.0000   1.0000   1.0000   1.0000   1.0000   1.0000
     1.0000   1.0000   1.0000   1.0000   1.0000   1.0000   1.0000   1.0000
     1.0000   1.0000   1.0000   1.0000   1.0000   1.0000   1.0000   1.0000
     1.0000   1.0000   1.0000   1.0000   1.0000   1.0000   1.0000   1.0000
     1.0000   1.0000   1.0000   1.0000   1.0000   1.0000   1.0000   1.0000
     1.0000   1.0000   1.0000   1.0000   1.0000   1.0000   1.0000   1.0000
     1.0000   1.0000   1.0000   1.0000   1.0000   1.0000   1.0000   1.0000
     1.0000   1.0000   1.0000   1.0000   1.0000   1.0000   1.0000   1.0000
     1.0000   1.0000   1.0000   1.0000   1.0000   1.0000   1.0000   1.0000
     1.0000   1.0000   1.0000   1.0000   1.0000   1.0000   1.0000   1.0000
     1.0000   1.0000   1.0000   1.0000   1.0000   1.0000   1.0000   1.0000
     1.0000   1.0000   1.0000   1.0000   1.0000   1.0000   1.0000   1.0000
     1.0000   1.0000   1.0000   1.0000   1.0000   1.0000   1.0000   1.0000
[...]
     0.0000   0.0000   0.0000   0.0000   0.0000   0.0000   0.0000   0.0000
     0.0000   0.0000   0.0000   0.0000   0.0000   0.0000   0.0000   0.0000

          k =-0.5000 0.0962-0.2034 ( 10326 PWs)   bands (ev):

   -78.9438 -78.9417 -78.9405 -73.8034 -73.8021 -73.8005 -44.9614 -44.9600
   -44.9587 -44.8879 -44.8879 -44.8856 -44.8856 -44.8844 -44.8844 -39.9513
   -39.9498 -39.9478 -39.8972 -39.8972 -39.8958 -39.8958 -39.8946 -39.8946
   -10.4395 -10.4271 -10.4178 -10.4059 -10.3935 -10.3900 -10.3765 -10.3726
   -10.3635 -10.3596 -10.3573 -10.3525 -10.3309 -10.3304 -10.3301 -10.3256
   -10.3219 -10.3204 -10.3186 -10.3166 -10.3145 -10.3137 -10.3086 -10.3072
   -10.3022 -10.2987 -10.2937 -10.2874 -10.2817 -10.2728  -6.4957  -6.4611
    -6.2151  -6.0579  -5.9812  -5.8237  -5.5270  -5.4625  -5.4445  -5.3308
    -5.3127  -5.2066  -5.1385  -5.1231  -5.0755  -5.0197  -5.0012  -5.0002
     1.8009   1.9157   1.9566   2.1902   2.2970   2.4221   4.6678   4.7410
     4.8370   5.0010   5.0942   5.1151   5.1410   5.1569   5.2114   5.2786
     5.2982   5.4010   5.5614   5.6249   5.6311   6.3545   6.5069   6.5340
     6.9312   6.9973   7.1533   7.3365   7.4068   7.5794   7.6297   7.6846
     7.8547   7.9541   8.1688   8.1842   8.2336   8.2658   8.3935   8.4483
     8.5468   8.7261   8.9064   8.9167   8.9608   9.1227   9.1684   9.2466
     9.3242   9.3979   9.6351   9.6666   9.7155   9.7533   9.9310  10.0212
    10.0293  10.0462  10.1507  10.2086  10.2209  10.2876  10.2944  10.5815
    10.6850  10.8018  11.0352  11.1277  11.1985  11.2525  11.2678  11.3610
    11.5295  11.6435  11.6547  14.2044  14.2368  14.2793  14.3406  14.3603
    14.4012  14.4574  14.4610  14.4805  14.6706  14.7018  14.8372  15.1156
    15.1443  15.2378  15.5464  15.6029  15.7835  15.9051  15.9204  16.2029
    16.7588  16.8783  17.0013  17.0779  17.2317  17.2575  17.2638  17.5441

     occupation numbers 
     1.0000   1.0000   1.0000   1.0000   1.0000   1.0000   1.0000   1.0000
     1.0000   1.0000   1.0000   1.0000   1.0000   1.0000   1.0000   1.0000
     1.0000   1.0000   1.0000   1.0000   1.0000   1.0000   1.0000   1.0000
     1.0000   1.0000   1.0000   1.0000   1.0000   1.0000   1.0000   1.0000
     1.0000   1.0000   1.0000   1.0000   1.0000   1.0000   1.0000   1.0000
     1.0000   1.0000   1.0000   1.0000   1.0000   1.0000   1.0000   1.0000
     1.0000   1.0000   1.0000   1.0000   1.0000   1.0000   1.0000   1.0000
     1.0000   1.0000   1.0000   1.0000   1.0000   1.0000   1.0000   1.0000
     1.0000   1.0000   1.0000   1.0000   1.0000   1.0000   1.0000   1.0000
     1.0000   1.0000   1.0000   1.0000   1.0000   1.0000   1.0000   1.0000
     1.0000   1.0000   1.0000   1.0000   1.0000   1.0000   1.0000   1.0000
     1.0000   1.0000   1.0000   1.0000   1.0000   1.0000   1.0000   1.0000
     1.0000   1.0000   1.0000   1.0000   1.0000   1.0000   1.0000   1.0000
     1.0000   1.0000   1.0000   1.0000   1.0000   1.0000   1.0000   1.0000
     1.0000   1.0000   1.0000   1.0000   1.0000   1.0000   1.0000   1.0000
     1.0000   1.0000   1.0000   1.0000   1.0000   1.0000   1.0000   1.0000
     1.0000   1.0000   1.0000   1.0000   1.0000   1.0000   1.0000   1.0000
     1.0000   1.0000   1.0000   1.0000   1.0000   1.0000   1.0000   1.0000
     1.0000   1.0000   1.0000   0.0000   0.0000   0.0000   0.0000   0.0000
     0.0000   0.0000   0.0000   0.0000   0.0000   0.0000   0.0000   0.0000
     0.0000   0.0000   0.0000   0.0000   0.0000   0.0000   0.0000   0.0000
     0.0000   0.0000   0.0000   0.0000   0.0000   0.0000   0.0000   0.0000

          k =-0.5000 0.0962-0.1017 ( 10303 PWs)   bands (ev):

   -78.9438 -78.9417 -78.9405 -73.8034 -73.8021 -73.8005 -44.9614 -44.9600
   -44.9587 -44.8879 -44.8879 -44.8856 -44.8856 -44.8844 -44.8844 -39.9513
   -39.9498 -39.9478 -39.8972 -39.8972 -39.8958 -39.8958 -39.8946 -39.8946
   -10.4361 -10.4328 -10.4176 -10.3993 -10.3942 -10.3917 -10.3818 -10.3729
   -10.3616 -10.3603 -10.3531 -10.3490 -10.3354 -10.3351 -10.3296 -10.3234
   -10.3229 -10.3187 -10.3175 -10.3166 -10.3152 -10.3126 -10.3090 -10.3054
   -10.3022 -10.2998 -10.2963 -10.2867 -10.2781 -10.2750  -6.5403  -6.3672
    -6.2653  -6.1079  -5.8937  -5.8584  -5.5613  -5.4323  -5.4257  -5.3757
    -5.2427  -5.2037  -5.1646  -5.1312  -5.1157  -5.0061  -4.9997  -4.9857
     1.8288   1.8505   1.9817   2.2296   2.2844   2.4090   4.6496   4.7813
     4.8244   4.9887   5.0381   5.1214   5.1592   5.1603   5.2264   5.3117
     5.3161   5.3637   5.5961   5.5991   5.6137   6.3522   6.4881   6.5699
     6.8699   7.0848   7.2529   7.2850   7.3006   7.5788   7.6845   7.6910
     7.9255   7.9652   8.0741   8.1308   8.1849   8.3152   8.3405   8.4933
     8.5473   8.7831   8.9204   8.9290   8.9535   9.0773   9.1468   9.1913
     9.3719   9.4167   9.6193   9.6718   9.7480   9.7973   9.9154   9.9495
    10.0042  10.0980  10.1401  10.2073  10.2229  10.2845  10.3169  10.6104
    10.6171  10.8807  11.0315  11.1157  11.1804  11.2650  11.3063  11.3157
    11.5755  11.6023  11.6490  14.2011  14.2463  14.2639  14.3301  14.3519
    14.3898  14.4563  14.4579  14.4840  14.5993  14.8091  14.8121  15.1614
    15.1641  15.1890  15.3818  15.7135  15.8238  15.9419  16.1235  16.1700
    16.6085  16.7251  16.8072  17.1898  17.2872  17.3181  17.3742  17.5372

     occupation numbers 
     1.0000   1.0000   1.0000   1.0000   1.0000   1.0000   1.0000   1.0000
     1.0000   1.0000   1.0000   1.0000   1.0000   1.0000   1.0000   1.0000
     1.0000   1.0000   1.0000   1.0000   1.0000   1.0000   1.0000   1.0000
     1.0000   1.0000   1.0000   1.0000   1.0000   1.0000   1.0000   1.0000
     1.0000   1.0000   1.0000   1.0000   1.0000   1.0000   1.0000   1.0000
     1.0000   1.0000   1.0000   1.0000   1.0000   1.0000   1.0000   1.0000
     1.0000   1.0000   1.0000   1.0000   1.0000   1.0000   1.0000   1.0000
     1.0000   1.0000   1.0000   1.0000   1.0000   1.0000   1.0000   1.0000
     1.0000   1.0000   1.0000   1.0000   1.0000   1.0000   1.0000   1.0000
     1.0000   1.0000   1.0000   1.0000   1.0000   1.0000   1.0000   1.0000
     1.0000   1.0000   1.0000   1.0000   1.0000   1.0000   1.0000   1.0000
     1.0000   1.0000   1.0000   1.0000   1.0000   1.0000   1.0000   1.0000
     1.0000   1.0000   1.0000   1.0000   1.0000   1.0000   1.0000   1.0000
     1.0000   1.0000   1.0000   1.0000   1.0000   1.0000   1.0000   1.0000
     1.0000   1.0000   1.0000   1.0000   1.0000   1.0000   1.0000   1.0000
     1.0000   1.0000   1.0000   1.0000   1.0000   1.0000   1.0000   1.0000
     1.0000   1.0000   1.0000   1.0000   1.0000   1.0000   1.0000   1.0000
     1.0000   1.0000   1.0000   1.0000   1.0000   1.0000   1.0000   1.0000
     1.0000   1.0000   1.0000   0.0000   0.0000   0.0000   0.0000   0.0000
     0.0000   0.0000   0.0000   0.0000   0.0000   0.0000   0.0000   0.0000
     0.0000   0.0000   0.0000   0.0000   0.0000   0.0000   0.0000   0.0000
     0.0000   0.0000   0.0000   0.0000   0.0000   0.0000   0.0000   0.0000

          k =-0.5000-0.8660 0.0000 ( 10312 PWs)   bands (ev):

   -78.9438 -78.9417 -78.9405 -73.8034 -73.8021 -73.8005 -44.9614 -44.9600
   -44.9587 -44.8879 -44.8879 -44.8856 -44.8856 -44.8844 -44.8844 -39.9513
   -39.9498 -39.9478 -39.8972 -39.8972 -39.8958 -39.8958 -39.8946 -39.8946
   -10.4520 -10.4161 -10.4156 -10.3947 -10.3945 -10.3897 -10.3826 -10.3825
   -10.3633 -10.3510 -10.3459 -10.3457 -10.3419 -10.3417 -10.3350 -10.3221
   -10.3207 -10.3206 -10.3185 -10.3157 -10.3156 -10.3134 -10.3082 -10.3081
   -10.3001 -10.3000 -10.2954 -10.2885 -10.2884 -10.2623  -6.4051  -6.4038
    -6.3600  -6.0883  -6.0871  -5.6649  -5.6161  -5.4346  -5.3582  -5.3560
    -5.2440  -5.2430  -5.2109  -5.0917  -5.0902  -5.0121  -5.0113  -4.9959
     1.6701   1.9600   1.9611   2.2662   2.2668   2.4756   4.6211   4.8510
     4.8519   5.0245   5.0263   5.1168   5.1712   5.1724   5.2158   5.2376
     5.2386   5.2550   5.5987   5.5998   5.6662   6.4529   6.5445   6.5451
     6.9023   6.9037   7.2591   7.2602   7.3819   7.5643   7.7754   7.7763
     7.8643   7.8648   7.8842   8.2413   8.4020   8.4037   8.4965   8.4971
     8.5405   8.6420   8.8579   8.8588   8.8875   9.0605   9.2416   9.2421
     9.2638   9.4368   9.4381   9.6008   9.8305   9.8312   9.9812   9.9919
     9.9919  10.0372  10.1549  10.1554  10.2832  10.2836  10.4303  10.6527
    10.8059  10.8066  11.0173  11.0647  11.0666  11.1252  11.3982  11.3988
    11.5238  11.6130  11.6143  14.1275  14.2454  14.2470  14.2965  14.2981
    14.2989  14.4782  14.4861  14.4877  14.5505  14.8805  14.8815  15.0441
    15.0453  15.2638  15.3808  15.8986  15.8994  16.1254  16.1263  16.3726
    16.3729  16.3780  16.4534  17.1575  17.4966  17.4978  17.5434  17.6653

     occupation numbers 
     1.0000   1.0000   1.0000   1.0000   1.0000   1.0000   1.0000   1.0000
     1.0000   1.0000   1.0000   1.0000   1.0000   1.0000   1.0000   1.0000
     1.0000   1.0000   1.0000   1.0000   1.0000   1.0000   1.0000   1.0000
     1.0000   1.0000   1.0000   1.0000   1.0000   1.0000   1.0000   1.0000
     1.0000   1.0000   1.0000   1.0000   1.0000   1.0000   1.0000   1.0000
     1.0000   1.0000   1.0000   1.0000   1.0000   1.0000   1.0000   1.0000
     1.0000   1.0000   1.0000   1.0000   1.0000   1.0000   1.0000   1.0000
     1.0000   1.0000   1.0000   1.0000   1.0000   1.0000   1.0000   1.0000
     1.0000   1.0000   1.0000   1.0000   1.0000   1.0000   1.0000   1.0000
     1.0000   1.0000   1.0000   1.0000   1.0000   1.0000   1.0000   1.0000
     1.0000   1.0000   1.0000   1.0000   1.0000   1.0000   1.0000   1.0000
     1.0000   1.0000   1.0000   1.0000   1.0000   1.0000   1.0000   1.0000
     1.0000   1.0000   1.0000   1.0000   1.0000   1.0000   1.0000   1.0000
     1.0000   1.0000   1.0000   1.0000   1.0000   1.0000   1.0000   1.0000
     1.0000   1.0000   1.0000   1.0000   1.0000   1.0000   1.0000   1.0000
     1.0000   1.0000   1.0000   1.0000   1.0000   1.0000   1.0000   1.0000
     1.0000   1.0000   1.0000   1.0000   1.0000   1.0000   1.0000   1.0000
     1.0000   1.0000   1.0000   1.0000   1.0000   1.0000   1.0000   1.0000
     1.0000   1.0000   1.0000   0.0000   0.0000   0.0000   0.0000   0.0000
     0.0000   0.0000   0.0000   0.0000   0.0000   0.0000   0.0000   0.0000
     0.0000   0.0000   0.0000   0.0000   0.0000   0.0000   0.0000   0.0000
     0.0000   0.0000   0.0000   0.0000   0.0000   0.0000   0.0000   0.0000

          k =-0.5000-0.8660 0.1017 ( 10322 PWs)   bands (ev):

   -78.9438 -78.9417 -78.9405 -73.8034 -73.8021 -73.8005 -44.9614 -44.9600
   -44.9587 -44.8879 -44.8879 -44.8856 -44.8856 -44.8844 -44.8844 -39.9513
   -39.9498 -39.9478 -39.8972 -39.8972 -39.8958 -39.8958 -39.8946 -39.8946
   -10.4495 -10.4304 -10.4018 -10.3941 -10.3912 -10.3903 -10.3896 -10.3739
   -10.3619 -10.3604 -10.3555 -10.3501 -10.3350 -10.3331 -10.3324 -10.3218
   -10.3216 -10.3213 -10.3195 -10.3176 -10.3138 -10.3132 -10.3109 -10.3051
   -10.3040 -10.2977 -10.2958 -10.2954 -10.2793 -10.2646  -6.4100  -6.3716
    -6.3700  -6.2041  -5.9571  -5.7175  -5.5790  -5.4238  -5.4218  -5.3274
    -5.3090  -5.1851  -5.1751  -5.0980  -5.0952  -5.0164  -5.0133  -4.9989
     1.6948   1.8588   2.0492   2.2037   2.3361   2.4561   4.6381   4.7629
     4.9260   5.0113   5.0682   5.1171   5.1441   5.1819   5.1909   5.2163
     5.2482   5.2652   5.6053   5.6293   5.6587   6.4578   6.5040   6.5715
     6.8481   6.9903   7.1446   7.2776   7.4301   7.6126   7.6372   7.8086
     7.8480   7.9187   7.9770   8.2280   8.2955   8.4285   8.4498   8.4898
     8.5865   8.6291   8.6874   8.9665   9.0264   9.0301   9.1546   9.3283
     9.3347   9.3724   9.6008   9.6412   9.7739   9.8567   9.8922   9.9336
    10.0113  10.0492  10.1202  10.1892  10.2623  10.2794  10.3395  10.6683
    10.7102  10.9206  11.0307  11.0523  11.0621  11.1694  11.3490  11.4295
    11.5291  11.5705  11.6505  14.1719  14.1767  14.2680  14.3148  14.3176
    14.3228  14.4725  14.4825  14.4858  14.5612  14.7520  14.9255  15.0153
    15.1366  15.2615  15.4242  15.7722  15.8481  15.9539  16.2227  16.3773
    16.3954  16.4840  16.7529  17.0950  17.2550  17.4337  17.5142  17.5759

     occupation numbers 
     1.0000   1.0000   1.0000   1.0000   1.0000   1.0000   1.0000   1.0000
     1.0000   1.0000   1.0000   1.0000   1.0000   1.0000   1.0000   1.0000
     1.0000   1.0000   1.0000   1.0000   1.0000   1.0000   1.0000   1.0000
     1.0000   1.0000   1.0000   1.0000   1.0000   1.0000   1.0000   1.0000
     1.0000   1.0000   1.0000   1.0000   1.0000   1.0000   1.0000   1.0000
     1.0000   1.0000   1.0000   1.0000   1.0000   1.0000   1.0000   1.0000
     1.0000   1.0000   1.0000   1.0000   1.0000   1.0000   1.0000   1.0000
     1.0000   1.0000   1.0000   1.0000   1.0000   1.0000   1.0000   1.0000
     1.0000   1.0000   1.0000   1.0000   1.0000   1.0000   1.0000   1.0000
     1.0000   1.0000   1.0000   1.0000   1.0000   1.0000   1.0000   1.0000
     1.0000   1.0000   1.0000   1.0000   1.0000   1.0000   1.0000   1.0000
     1.0000   1.0000   1.0000   1.0000   1.0000   1.0000   1.0000   1.0000
     1.0000   1.0000   1.0000   1.0000   1.0000   1.0000   1.0000   1.0000
     1.0000   1.0000   1.0000   1.0000   1.0000   1.0000   1.0000   1.0000
     1.0000   1.0000   1.0000   1.0000   1.0000   1.0000   1.0000   1.0000
     1.0000   1.0000   1.0000   1.0000   1.0000   1.0000   1.0000   1.0000
     1.0000   1.0000   1.0000   1.0000   1.0000   1.0000   1.0000   1.0000
     1.0000   1.0000   1.0000   1.0000   1.0000   1.0000   1.0000   1.0000
     1.0000   1.0000   1.0000   0.0000   0.0000   0.0000   0.0000   0.0000
     0.0000   0.0000   0.0000   0.0000   0.0000   0.0000   0.0000   0.0000
     0.0000   0.0000   0.0000   0.0000   0.0000   0.0000   0.0000   0.0000
     0.0000   0.0000   0.0000   0.0000   0.0000   0.0000   0.0000   0.0000

          k =-0.5000-0.8660-0.2034 ( 10300 PWs)   bands (ev):

   -78.9438 -78.9417 -78.9405 -73.8034 -73.8021 -73.8005 -44.9614 -44.9600
   -44.9587 -44.8879 -44.8879 -44.8856 -44.8856 -44.8844 -44.8844 -39.9513
   -39.9498 -39.9478 -39.8972 -39.8972 -39.8958 -39.8958 -39.8946 -39.8946
   -10.4425 -10.4415 -10.3959 -10.3944 -10.3925 -10.3918 -10.3782 -10.3758
   -10.3649 -10.3644 -10.3572 -10.3564 -10.3304 -10.3298 -10.3259 -10.3256
   -10.3218 -10.3213 -10.3203 -10.3194 -10.3131 -10.3121 -10.3108 -10.3094
   -10.3005 -10.3000 -10.2967 -10.2960 -10.2711 -10.2702  -6.3947  -6.3934
    -6.3226  -6.2808  -5.8270  -5.8263  -5.5040  -5.5034  -5.3903  -5.3887
    -5.2885  -5.1592  -5.1338  -5.1334  -5.0865  -5.0274  -5.0072  -5.0062
     1.7626   1.7637   2.0998   2.1630   2.4039   2.4049   4.6867   4.6882
     4.9444   5.0561   5.0799   5.1048   5.1059   5.1824   5.1992   5.2001
     5.2554   5.2556   5.6352   5.6361   5.6509   6.4734   6.4739   6.5730
     6.8302   7.1092   7.1184   7.1195   7.5804   7.5848   7.5852   7.7979
     7.7989   7.9680   8.1431   8.1435   8.2043   8.4435   8.4441   8.4479
     8.6215   8.6228   8.6331   8.9700   8.9703   9.1293   9.1302   9.4037
     9.4044   9.4267   9.6768   9.6780   9.6797   9.8947   9.8953   9.9058
     9.9471  10.0366  10.0370  10.2057  10.2564  10.2753  10.2761  10.6758
    10.6770  10.9843  11.0279  11.0487  11.0500  11.2644  11.2652  11.4430
    11.5428  11.5435  11.6640  14.1466  14.2326  14.2351  14.3216  14.3531
    14.3546  14.4690  14.4706  14.4846  14.6203  14.6210  14.9084  15.0366
    15.2183  15.2200  15.5894  15.5899  15.7167  15.8924  16.3427  16.3431
    16.5365  16.5373  17.0475  17.0486  17.1056  17.1677  17.4921  17.4922

     occupation numbers 
     1.0000   1.0000   1.0000   1.0000   1.0000   1.0000   1.0000   1.0000
     1.0000   1.0000   1.0000   1.0000   1.0000   1.0000   1.0000   1.0000
     1.0000   1.0000   1.0000   1.0000   1.0000   1.0000   1.0000   1.0000
     1.0000   1.0000   1.0000   1.0000   1.0000   1.0000   1.0000   1.0000
     1.0000   1.0000   1.0000   1.0000   1.0000   1.0000   1.0000   1.0000
     1.0000   1.0000   1.0000   1.0000   1.0000   1.0000   1.0000   1.0000
     1.0000   1.0000   1.0000   1.0000   1.0000   1.0000   1.0000   1.0000
     1.0000   1.0000   1.0000   1.0000   1.0000   1.0000   1.0000   1.0000
     1.0000   1.0000   1.0000   1.0000   1.0000   1.0000   1.0000   1.0000
     1.0000   1.0000   1.0000   1.0000   1.0000   1.0000   1.0000   1.0000
     1.0000   1.0000   1.0000   1.0000   1.0000   1.0000   1.0000   1.0000
     1.0000   1.0000   1.0000   1.0000   1.0000   1.0000   1.0000   1.0000
     1.0000   1.0000   1.0000   1.0000   1.0000   1.0000   1.0000   1.0000
     1.0000   1.0000   1.0000   1.0000   1.0000   1.0000   1.0000   1.0000
     1.0000   1.0000   1.0000   1.0000   1.0000   1.0000   1.0000   1.0000
     1.0000   1.0000   1.0000   1.0000   1.0000   1.0000   1.0000   1.0000
     1.0000   1.0000   1.0000   1.0000   1.0000   1.0000   1.0000   1.0000
     1.0000   1.0000   1.0000   1.0000   1.0000   1.0000   1.0000   1.0000
     1.0000   1.0000   1.0000   0.0000   0.0000   0.0000   0.0000   0.0000
     0.0000   0.0000   0.0000   0.0000   0.0000   0.0000   0.0000   0.0000
     0.0000   0.0000   0.0000   0.0000   0.0000   0.0000   0.0000   0.0000
     0.0000   0.0000   0.0000   0.0000   0.0000   0.0000   0.0000   0.0000

     the Fermi energy is    11.8347 ev
     (compare with:    12.4029 eV, computed in scf)

     Writing output data file /home/aldair1809/Documentos/QE/4BFO/temp_tipoA/nscf/bifeo3.save/

     init_run     :    307.53s CPU    308.88s WALL (       1 calls)
     electrons    :  40562.11s CPU  40976.85s WALL (       1 calls)

     Called by init_run:
     wfcinit      :    303.49s CPU    304.25s WALL (       1 calls)
     wfcinit:atom :      0.89s CPU      0.92s WALL (     152 calls)
     wfcinit:wfcr :    771.55s CPU    777.74s WALL (     152 calls)
     potinit      :      0.34s CPU      0.40s WALL (       1 calls)
     hinit0       :      1.48s CPU      1.50s WALL (       1 calls)

     Called by electrons:
     c_bands      :  40561.67s CPU  40976.35s WALL (       1 calls)
     v_of_rho     :      0.28s CPU      0.33s WALL (       1 calls)
     v_h          :      0.01s CPU      0.02s WALL (       1 calls)
     v_xc         :      0.27s CPU      0.31s WALL (       1 calls)
     newd         :      2.09s CPU      2.60s WALL (       1 calls)

     Called by c_bands:
     init_us_2    :      3.26s CPU      3.29s WALL (     304 calls)
     ccgdiagg     :  36816.53s CPU  37187.86s WALL (     847 calls)
     wfcrot       :   3734.42s CPU   3768.54s WALL (     847 calls)

     Called by sum_band:

     Called by *cgdiagg:
     h_psi        :  18314.46s CPU  18611.12s WALL ( 1123030 calls)
     s_psi        :  11743.12s CPU  11791.23s WALL ( 2245365 calls)

     Called by h_psi:
     h_psi:calbec :   6230.01s CPU   6305.69s WALL ( 1123030 calls)
     vloc_psi     :   4593.72s CPU   4781.27s WALL ( 1123030 calls)
     add_vuspsi   :   6124.84s CPU   6145.95s WALL ( 1123030 calls)
     vhpsi        :   1328.57s CPU   1343.54s WALL ( 1123030 calls)
     hs_1psi      :  21583.91s CPU  21875.14s WALL ( 1122183 calls)
     s_1psi       :  10868.55s CPU  10919.92s WALL ( 1122183 calls)

     General routines
     calbec       :  12678.08s CPU  12799.81s WALL ( 3368395 calls)
     fft          :      0.21s CPU      0.23s WALL (      23 calls)
     ffts         :      0.01s CPU      0.01s WALL (       2 calls)
     fftw         :   4103.32s CPU   4281.51s WALL ( 2551022 calls)
     interpolate  :      0.03s CPU      0.03s WALL (       2 calls)
     davcio       :      0.14s CPU     70.87s WALL (     608 calls)

     Parallel routines
     fft_scatt_xy :    459.76s CPU    488.46s WALL ( 2551047 calls)
     fft_scatt_yz :    810.89s CPU    878.63s WALL ( 2551047 calls)

     Hubbard U routines
     vhpsi        :   1328.57s CPU   1343.54s WALL ( 1123030 calls)

     PWSCF        :     11h21m CPU     11h30m WALL


   This run was terminated on:   9:59:37  15Dec2024            

=------------------------------------------------------------------------------=
   JOB DONE.
=------------------------------------------------------------------------------=
