
     Program PWSCF v.6.7MaX starts on 26Oct2024 at 20:34:53 

     This program is part of the open-source Quantum ESPRESSO suite
     for quantum simulation of materials; please cite
         "P. Giannozzi et al., J. Phys.:Condens. Matter 21 395502 (2009);
         "P. Giannozzi et al., J. Phys.:Condens. Matter 29 465901 (2017);
          URL http://www.quantum-espresso.org", 
     in publications or presentations arising from this work. More details at
     http://www.quantum-espresso.org/quote

     Parallel version (MPI), running on     4 processors

     MPI processes distributed on     1 nodes
     R & G space division:  proc/nbgrp/npool/nimage =       4
     Waiting for input...
     Reading input from standard input

     Current dimensions of program PWSCF are:
     Max number of different atomic species (ntypx) = 10
     Max number of k-points (npk) =  40000
     Max angular momentum in pseudopotentials (lmaxx) =  3
     Message from routine iosys:
     wrong startingpot: use default (1)

     Subspace diagonalization in iterative solution of the eigenvalue problem:
     one sub-group per band group will be used
     scalapack distributed-memory algorithm (size of sub-group:  2*  2 procs)


     Parallelization info
     --------------------
     sticks:   dense  smooth     PW     G-vecs:    dense   smooth      PW
     Min         261     261     74                17069    17069    2544
     Max         262     262     76                17072    17072    2546
     Sum        1045    1045    301                68281    68281   10179



     bravais-lattice index     =            4
     lattice parameter (alat)  =      10.4531  a.u.
     unit-cell volume          =    2440.6662 (a.u.)^3
     number of atoms/cell      =           30
     number of atomic types    =            4
     number of electrons       =       294.00
     number of Kohn-Sham states=          200
     kinetic-energy cutoff     =      35.0000  Ry
     charge density cutoff     =     140.0000  Ry
     scf convergence threshold =      1.0E-05
     mixing beta               =       0.4000
     number of iterations used =            8  plain     mixing
     Exchange-correlation=  SLA  PW   PBX  PBC
                           (   1   4   3   4   0   0   0)

     celldm(1)=  10.453102  celldm(2)=   0.000000  celldm(3)=   2.467415
     celldm(4)=   0.000000  celldm(5)=   0.000000  celldm(6)=   0.000000

     crystal axes: (cart. coord. in units of alat)
               a(1) = (   1.000000   0.000000   0.000000 )  
               a(2) = (  -0.500000   0.866025   0.000000 )  
               a(3) = (   0.000000   0.000000   2.467415 )  

     reciprocal axes: (cart. coord. in units 2 pi/alat)
               b(1) = (  1.000000  0.577350 -0.000000 )  
               b(2) = (  0.000000  1.154701  0.000000 )  
               b(3) = (  0.000000 -0.000000  0.405282 )  


     PseudoPot. # 1 for O  read from file:
     /home/aldair1809/Programas/QE/q-e-qe-7.3/pseudo/o_pbe_v1.2.uspp.F.UPF
     MD5 check sum: 734c27235a0248c51dbae37a1fbe46ec
     Pseudo is Ultrasoft + core correction, Zval =  6.0
     Generated by new atomic code, or converted to UPF format
     Using radial grid of  737 points,  5 beta functions with: 
                l(1) =   0
                l(2) =   0
                l(3) =   1
                l(4) =   1
                l(5) =   2
     Q(r) pseudized with  8 coefficients,  rinner =    0.900   0.900   0.900
                                                       0.900   0.900

     PseudoPot. # 2 for Bi read from file:
     /home/aldair1809/Programas/QE/q-e-qe-7.3/pseudo/bi_pbe_v1.uspp.F.UPF
     MD5 check sum: cceb9f28ec65b6d7ff33140f5b0b1758
     Pseudo is Ultrasoft + core correction, Zval = 15.0
     Generated by new atomic code, or converted to UPF format
     Using radial grid of  899 points,  6 beta functions with: 
                l(1) =   0
                l(2) =   0
                l(3) =   1
                l(4) =   1
                l(5) =   2
                l(6) =   2
     Q(r) pseudized with  6 coefficients,  rinner =    1.000   1.000   1.000
                                                       1.000   1.000

     PseudoPot. # 3 for Fe read from file:
     /home/aldair1809/Programas/QE/q-e-qe-7.3/pseudo/fe_pbe_v1.5.uspp.F.UPF
     MD5 check sum: a130daea23fe5165f5d574ae7f82ed95
     Pseudo is Ultrasoft + core correction, Zval = 16.0
     Generated by new atomic code, or converted to UPF format
     Using radial grid of  861 points,  6 beta functions with: 
                l(1) =   0
                l(2) =   0
                l(3) =   1
                l(4) =   1
                l(5) =   2
                l(6) =   2
     Q(r) pseudized with  8 coefficients,  rinner =    1.000   1.000   1.000
                                                       1.000   1.000

     PseudoPot. # 4 for Fe read from file:
     /home/aldair1809/Programas/QE/q-e-qe-7.3/pseudo/fe_pbe_v1.5.uspp.F.UPF
     MD5 check sum: a130daea23fe5165f5d574ae7f82ed95
     Pseudo is Ultrasoft + core correction, Zval = 16.0
     Generated by new atomic code, or converted to UPF format
     Using radial grid of  861 points,  6 beta functions with: 
                l(1) =   0
                l(2) =   0
                l(3) =   1
                l(4) =   1
                l(5) =   2
                l(6) =   2
     Q(r) pseudized with  8 coefficients,  rinner =    1.000   1.000   1.000
                                                       1.000   1.000

     atomic species   valence    mass     pseudopotential
        O              6.00    15.99940     O ( 1.00)
        Bi            15.00   208.98040     Bi( 1.00)
        Fe1           16.00    55.84500     Fe( 1.00)
        Fe2           16.00    55.84500     Fe( 1.00)

     Starting magnetic structure 
     atomic species   magnetization
        O            0.000
        Bi           0.000
        Fe1         -0.800
        Fe2          0.800


     Simplified LDA+U calculation (l_max = 2) with parameters (eV):
     atomic species    L          U    alpha       J0     beta
        Fe1            2     0.0000   0.0000   0.0000   0.0000
        Fe2            2     0.0000   0.0000   0.0000   0.0000



      3 Sym. Ops. (no inversion) found


                                    s                        frac. trans.

      isym =  1     identity                                     

 cryst.   s( 1) = (     1          0          0      )
                  (     0          1          0      )
                  (     0          0          1      )

 cart.    s( 1) = (  1.0000000  0.0000000  0.0000000 )
                  (  0.0000000  1.0000000  0.0000000 )
                  (  0.0000000  0.0000000  1.0000000 )


      isym =  2     120 deg rotation - cryst. axis [0,0,1]       

 cryst.   s( 2) = (     0          1          0      )
                  (    -1         -1          0      )
                  (     0          0          1      )

 cart.    s( 2) = ( -0.5000000 -0.8660254  0.0000000 )
                  (  0.8660254 -0.5000000  0.0000000 )
                  (  0.0000000  0.0000000  1.0000000 )


      isym =  3     120 deg rotation - cryst. axis [0,0,-1]      

 cryst.   s( 3) = (    -1         -1          0      )
                  (     1          0          0      )
                  (     0          0          1      )

 cart.    s( 3) = ( -0.5000000  0.8660254  0.0000000 )
                  ( -0.8660254 -0.5000000  0.0000000 )
                  (  0.0000000  0.0000000  1.0000000 )


     point group C_3 (3)    
     there are  3 classes
     the character table:

       E     C3    C3^2 
A      1.00  1.00  1.00
E      1.00 -0.50 -0.50
E*     1.00 -0.50 -0.50
     imaginary part
A      0.00  0.00  0.00
E      0.00  0.87 -0.87
E*     0.00 -0.87  0.87

     the symmetry operations in each class and the name of the first element:

     E        1
          identity                                               
     C3       2
          120 deg rotation - cryst. axis [0,0,1]                 
     C3^2     3
          120 deg rotation - cryst. axis [0,0,-1]                

   Cartesian axes

     site n.     atom                  positions (alat units)
         1           Fe1 tau(   1) = (   0.0000000   0.0000000   1.9173194  )
         2           Fe1 tau(   2) = (  -0.0000005   0.5773506   2.3408318  )
         3           Fe1 tau(   3) = (   0.5000005   0.2886748   1.4987656  )
         4           Fe2 tau(   4) = (   0.5000005   0.2886748   0.2650306  )
         5           Fe2 tau(   5) = (   0.0000000   0.0000000   0.6836385  )
         6           Fe2 tau(   6) = (  -0.0000005   0.5773506   1.1071829  )
         7           Bi  tau(   7) = (   0.5000005   0.2886748   2.0704508  )
         8           Bi  tau(   8) = (  -0.0000005   0.5773506   1.6683657  )
         9           Bi  tau(   9) = (  -0.0000005   0.5773506   0.4345959  )
        10           Bi  tau(  10) = (   0.0000000   0.0000000   0.0112133  )
        11           Bi  tau(  11) = (   0.0000000   0.0000000   1.2449306  )
        12           Bi  tau(  12) = (   0.5000005   0.2886748   0.8366940  )
        13           O   tau(  13) = (  -0.3015234   0.6617768   2.1713309  )
        14           O   tau(  14) = (   0.0776467   0.2740092   2.1713309  )
        15           O   tau(  15) = (   0.2238783   0.7962639   2.1713309  )
        16           O   tau(  16) = (   0.4195843   0.5622547   1.7587968  )
        17           O   tau(  17) = (   0.3032805   0.0822442   1.7587968  )
        18           O   tau(  18) = (   0.7771337   0.2215274   1.7587968  )
        19           O   tau(  19) = (   0.6967279   0.0822438   0.5250654  )
        20           O   tau(  20) = (   0.5804103   0.5622631   0.5250654  )
        21           O   tau(  21) = (   0.2228602   0.2215194   0.5250654  )
        22           O   tau(  22) = (  -0.0757596   0.8510068   0.1130324  )
        23           O   tau(  23) = (  -0.1991137   0.3749123   0.1130324  )
        24           O   tau(  24) = (   0.2748733   0.5061317   0.1130324  )
        25           O   tau(  25) = (   0.1991050   0.3749017   1.3467955  )
        26           O   tau(  26) = (   0.0757731   0.8510045   1.3467955  )
        27           O   tau(  27) = (  -0.2748781   0.5061446   1.3467955  )
        28           O   tau(  28) = (  -0.0776631   0.2740052   0.9376559  )
        29           O   tau(  29) = (   0.3015366   0.6617637   0.9376559  )
        30           O   tau(  30) = (  -0.2238720   0.7962811   0.9376559  )

   Crystallographic axes

     site n.     atom                  positions (cryst. coord.)
         1           Fe1 tau(   1) = (  0.0000000  0.0000000  0.7770559  )
         2           Fe1 tau(   2) = (  0.3333330  0.6666670  0.9486980  )
         3           Fe1 tau(   3) = (  0.6666670  0.3333330  0.6074234  )
         4           Fe2 tau(   4) = (  0.6666670  0.3333330  0.1074122  )
         5           Fe2 tau(   5) = (  0.0000000  0.0000000  0.2770667  )
         6           Fe2 tau(   6) = (  0.3333330  0.6666670  0.4487218  )
         7           Bi  tau(   7) = (  0.6666670  0.3333330  0.8391174  )
         8           Bi  tau(   8) = (  0.3333330  0.6666670  0.6761593  )
         9           Bi  tau(   9) = (  0.3333330  0.6666670  0.1761341  )
        10           Bi  tau(  10) = (  0.0000000  0.0000000  0.0045446  )
        11           Bi  tau(  11) = (  0.0000000  0.0000000  0.5045485  )
        12           Bi  tau(  12) = (  0.6666670  0.3333330  0.3390974  )
        13           O   tau(  13) = (  0.0805536  0.7641541  0.8800023  )
        14           O   tau(  14) = (  0.2358459  0.3163985  0.8800023  )
        15           O   tau(  15) = (  0.6836015  0.9194464  0.8800023  )
        16           O   tau(  16) = (  0.7442022  0.6492358  0.7128095  )
        17           O   tau(  17) = (  0.3507642  0.0949674  0.7128095  )
        18           O   tau(  18) = (  0.9050326  0.2557978  0.7128095  )
        19           O   tau(  19) = (  0.7442114  0.0949669  0.2127998  )
        20           O   tau(  20) = (  0.9050331  0.6492455  0.2127998  )
        21           O   tau(  21) = (  0.3507545  0.2557886  0.2127998  )
        22           O   tau(  22) = (  0.4155694  0.9826580  0.0458101  )
        23           O   tau(  23) = (  0.0173420  0.4329115  0.0458101  )
        24           O   tau(  24) = (  0.5670885  0.5844306  0.0458101  )
        25           O   tau(  25) = (  0.4155546  0.4328992  0.5458326  )
        26           O   tau(  26) = (  0.5671008  0.9826554  0.5458326  )
        27           O   tau(  27) = (  0.0173446  0.5844454  0.5458326  )
        28           O   tau(  28) = (  0.0805338  0.3163939  0.3800155  )
        29           O   tau(  29) = (  0.6836061  0.7641389  0.3800155  )
        30           O   tau(  30) = (  0.2358611  0.9194662  0.3800155  )

     number of k points=     2  Methfessel-Paxton smearing, width (Ry)=  0.0100
                       cart. coord. in units 2pi/alat
        k(    1) = (   0.0000000   0.0000000   0.0000000), wk =   0.2500000
        k(    2) = (   0.0000000  -0.5773503   0.0000000), wk =   0.7500000

                       cryst. coord.
        k(    1) = (   0.0000000   0.0000000   0.0000000), wk =   0.2500000
        k(    2) = (   0.0000000  -0.5000000   0.0000000), wk =   0.7500000

     Dense  grid:    68281 G-vectors     FFT dimensions: (  40,  40, 100)

     Dynamical RAM for                 wfc:       6.51 MB

     Dynamical RAM for     wfc (w. buffer):      32.55 MB

     Dynamical RAM for             U proj.:       0.98 MB

     Dynamical RAM for  U proj. (w. buff.):       4.88 MB

     Dynamical RAM for           str. fact:       1.04 MB

     Dynamical RAM for           local pot:       0.00 MB

     Dynamical RAM for          nlocal pot:      14.65 MB

     Dynamical RAM for                qrad:       3.80 MB

     Dynamical RAM for          rho,v,vnew:       3.39 MB

     Dynamical RAM for               rhoin:       1.13 MB

     Dynamical RAM for            rho*nmix:       8.34 MB

     Dynamical RAM for           G-vectors:       1.11 MB

     Dynamical RAM for          h,s,v(r/c):       0.46 MB

     Dynamical RAM for          <psi|beta>:       1.37 MB

     Dynamical RAM for      wfcinit/wfcrot:      14.23 MB

     Dynamical RAM for           addusdens:      53.40 MB

     Estimated static dynamical RAM per process >      74.02 MB

     Estimated max dynamical RAM per process >     127.42 MB

     Estimated total dynamical RAM >     509.70 MB

     Check: negative core charge=   -0.000081
     Generating pointlists ...
     new r_m :   0.1435 (alat units)  1.5003 (a.u.) for type    1
     new r_m :   0.1728 (alat units)  1.8065 (a.u.) for type    2
     new r_m :   0.1435 (alat units)  1.5003 (a.u.) for type    3
     new r_m :   0.1435 (alat units)  1.5003 (a.u.) for type    4

     Initial potential from superposition of free atoms

     starting charge  281.99969, renormalised to  294.00000

     negative rho (up, down):  1.326E-01 1.326E-01
 --- in v_hubbard ---
Hubbard energy    0.0000
 -------
     Number of +U iterations with fixed ns =  0
     Starting occupations:
 --- enter write_ns ---
 LDA+U parameters:
alpha( 3) =  0.00000001
alpha( 4) =  0.00000001
atom    1   Tr[ns(na)] (up, down, total) =   1.00000  5.00000  6.00000
   spin  1
    eigenvalues: 
  0.200  0.200  0.200  0.200  0.200
    eigenvectors:
  1.000  0.000  0.000  0.000  0.000
  0.000  1.000  0.000  0.000  0.000
  0.000  0.000  1.000  0.000  0.000
  0.000  0.000  0.000  1.000  0.000
  0.000  0.000  0.000  0.000  1.000
    occupations:
  0.200  0.000  0.000  0.000  0.000
  0.000  0.200  0.000  0.000  0.000
  0.000  0.000  0.200  0.000  0.000
  0.000  0.000  0.000  0.200  0.000
  0.000  0.000  0.000  0.000  0.200
   spin  2
    eigenvalues: 
  1.000  1.000  1.000  1.000  1.000
    eigenvectors:
  1.000  0.000  0.000  0.000  0.000
  0.000  1.000  0.000  0.000  0.000
  0.000  0.000  1.000  0.000  0.000
  0.000  0.000  0.000  1.000  0.000
  0.000  0.000  0.000  0.000  1.000
    occupations:
  1.000  0.000  0.000  0.000  0.000
  0.000  1.000  0.000  0.000  0.000
  0.000  0.000  1.000  0.000  0.000
  0.000  0.000  0.000  1.000  0.000
  0.000  0.000  0.000  0.000  1.000
atomic mag. moment =  -4.00000
atom    2   Tr[ns(na)] (up, down, total) =   1.00000  5.00000  6.00000
   spin  1
    eigenvalues: 
  0.200  0.200  0.200  0.200  0.200
    eigenvectors:
  1.000  0.000  0.000  0.000  0.000
  0.000  1.000  0.000  0.000  0.000
  0.000  0.000  1.000  0.000  0.000
  0.000  0.000  0.000  1.000  0.000
  0.000  0.000  0.000  0.000  1.000
    occupations:
  0.200  0.000  0.000  0.000  0.000
  0.000  0.200  0.000  0.000  0.000
  0.000  0.000  0.200  0.000  0.000
  0.000  0.000  0.000  0.200  0.000
  0.000  0.000  0.000  0.000  0.200
   spin  2
    eigenvalues: 
  1.000  1.000  1.000  1.000  1.000
    eigenvectors:
  1.000  0.000  0.000  0.000  0.000
  0.000  1.000  0.000  0.000  0.000
  0.000  0.000  1.000  0.000  0.000
  0.000  0.000  0.000  1.000  0.000
  0.000  0.000  0.000  0.000  1.000
    occupations:
  1.000  0.000  0.000  0.000  0.000
  0.000  1.000  0.000  0.000  0.000
  0.000  0.000  1.000  0.000  0.000
  0.000  0.000  0.000  1.000  0.000
  0.000  0.000  0.000  0.000  1.000
atomic mag. moment =  -4.00000
atom    3   Tr[ns(na)] (up, down, total) =   1.00000  5.00000  6.00000
   spin  1
    eigenvalues: 
  0.200  0.200  0.200  0.200  0.200
    eigenvectors:
  1.000  0.000  0.000  0.000  0.000
  0.000  1.000  0.000  0.000  0.000
  0.000  0.000  1.000  0.000  0.000
  0.000  0.000  0.000  1.000  0.000
  0.000  0.000  0.000  0.000  1.000
    occupations:
  0.200  0.000  0.000  0.000  0.000
  0.000  0.200  0.000  0.000  0.000
  0.000  0.000  0.200  0.000  0.000
  0.000  0.000  0.000  0.200  0.000
  0.000  0.000  0.000  0.000  0.200
   spin  2
    eigenvalues: 
  1.000  1.000  1.000  1.000  1.000
    eigenvectors:
  1.000  0.000  0.000  0.000  0.000
  0.000  1.000  0.000  0.000  0.000
  0.000  0.000  1.000  0.000  0.000
  0.000  0.000  0.000  1.000  0.000
  0.000  0.000  0.000  0.000  1.000
    occupations:
  1.000  0.000  0.000  0.000  0.000
  0.000  1.000  0.000  0.000  0.000
  0.000  0.000  1.000  0.000  0.000
  0.000  0.000  0.000  1.000  0.000
  0.000  0.000  0.000  0.000  1.000
atomic mag. moment =  -4.00000
atom    4   Tr[ns(na)] (up, down, total) =   5.00000  1.00000  6.00000
   spin  1
    eigenvalues: 
  1.000  1.000  1.000  1.000  1.000
    eigenvectors:
  1.000  0.000  0.000  0.000  0.000
  0.000  1.000  0.000  0.000  0.000
  0.000  0.000  1.000  0.000  0.000
  0.000  0.000  0.000  1.000  0.000
  0.000  0.000  0.000  0.000  1.000
    occupations:
  1.000  0.000  0.000  0.000  0.000
  0.000  1.000  0.000  0.000  0.000
  0.000  0.000  1.000  0.000  0.000
  0.000  0.000  0.000  1.000  0.000
  0.000  0.000  0.000  0.000  1.000
   spin  2
    eigenvalues: 
  0.200  0.200  0.200  0.200  0.200
    eigenvectors:
  1.000  0.000  0.000  0.000  0.000
  0.000  1.000  0.000  0.000  0.000
  0.000  0.000  1.000  0.000  0.000
  0.000  0.000  0.000  1.000  0.000
  0.000  0.000  0.000  0.000  1.000
    occupations:
  0.200  0.000  0.000  0.000  0.000
  0.000  0.200  0.000  0.000  0.000
  0.000  0.000  0.200  0.000  0.000
  0.000  0.000  0.000  0.200  0.000
  0.000  0.000  0.000  0.000  0.200
atomic mag. moment =   4.00000
atom    5   Tr[ns(na)] (up, down, total) =   5.00000  1.00000  6.00000
   spin  1
    eigenvalues: 
  1.000  1.000  1.000  1.000  1.000
    eigenvectors:
  1.000  0.000  0.000  0.000  0.000
  0.000  1.000  0.000  0.000  0.000
  0.000  0.000  1.000  0.000  0.000
  0.000  0.000  0.000  1.000  0.000
  0.000  0.000  0.000  0.000  1.000
    occupations:
  1.000  0.000  0.000  0.000  0.000
  0.000  1.000  0.000  0.000  0.000
  0.000  0.000  1.000  0.000  0.000
  0.000  0.000  0.000  1.000  0.000
  0.000  0.000  0.000  0.000  1.000
   spin  2
    eigenvalues: 
  0.200  0.200  0.200  0.200  0.200
    eigenvectors:
  1.000  0.000  0.000  0.000  0.000
  0.000  1.000  0.000  0.000  0.000
  0.000  0.000  1.000  0.000  0.000
  0.000  0.000  0.000  1.000  0.000
  0.000  0.000  0.000  0.000  1.000
    occupations:
  0.200  0.000  0.000  0.000  0.000
  0.000  0.200  0.000  0.000  0.000
  0.000  0.000  0.200  0.000  0.000
  0.000  0.000  0.000  0.200  0.000
  0.000  0.000  0.000  0.000  0.200
atomic mag. moment =   4.00000
atom    6   Tr[ns(na)] (up, down, total) =   5.00000  1.00000  6.00000
   spin  1
    eigenvalues: 
  1.000  1.000  1.000  1.000  1.000
    eigenvectors:
  1.000  0.000  0.000  0.000  0.000
  0.000  1.000  0.000  0.000  0.000
  0.000  0.000  1.000  0.000  0.000
  0.000  0.000  0.000  1.000  0.000
  0.000  0.000  0.000  0.000  1.000
    occupations:
  1.000  0.000  0.000  0.000  0.000
  0.000  1.000  0.000  0.000  0.000
  0.000  0.000  1.000  0.000  0.000
  0.000  0.000  0.000  1.000  0.000
  0.000  0.000  0.000  0.000  1.000
   spin  2
    eigenvalues: 
  0.200  0.200  0.200  0.200  0.200
    eigenvectors:
  1.000  0.000  0.000  0.000  0.000
  0.000  1.000  0.000  0.000  0.000
  0.000  0.000  1.000  0.000  0.000
  0.000  0.000  0.000  1.000  0.000
  0.000  0.000  0.000  0.000  1.000
    occupations:
  0.200  0.000  0.000  0.000  0.000
  0.000  0.200  0.000  0.000  0.000
  0.000  0.000  0.200  0.000  0.000
  0.000  0.000  0.000  0.200  0.000
  0.000  0.000  0.000  0.000  0.200
atomic mag. moment =   4.00000
N of occupied +U levels =   36.000000
 --- exit write_ns ---
 Atomic wfc used for LDA+U Projector are NOT orthogonalized
     Starting wfcs are  204 randomized atomic wfcs

     total cpu time spent up to now is       16.8 secs

     Self-consistent Calculation

     iteration #  1     ecut=    35.00 Ry     beta= 0.40
     CG style diagonalization
     ethr =  1.00E-02,  avg # of iterations =  2.6
 --- enter write_ns ---
 LDA+U parameters:
alpha( 3) =  0.00000001
alpha( 4) =  0.00000001
atom    1   Tr[ns(na)] (up, down, total) =   0.26360  4.95883  5.22243
   spin  1
    eigenvalues: 
  0.028  0.028  0.029  0.089  0.089
    eigenvectors:
  0.000  0.000  1.000  0.000  0.000
  0.034  0.371  0.000  0.003  0.592
  0.371  0.034  0.000  0.592  0.003
  0.133  0.463  0.000  0.172  0.232
  0.463  0.133  0.000  0.232  0.172
    occupations:
  0.029 -0.000 -0.000 -0.000 -0.000
 -0.000  0.064 -0.000  0.021  0.021
 -0.000 -0.000  0.064  0.021 -0.021
 -0.000  0.021  0.021  0.053  0.000
 -0.000  0.021 -0.021  0.000  0.053
   spin  2
    eigenvalues: 
  0.990  0.991  0.991  0.994  0.994
    eigenvectors:
  1.000  0.000  0.000  0.000  0.000
  0.000  0.013  0.109  0.016  0.862
  0.000  0.109  0.013  0.862  0.016
  0.000  0.149  0.729  0.073  0.048
  0.000  0.729  0.149  0.048  0.073
    occupations:
  0.990 -0.000 -0.000 -0.000 -0.000
 -0.000  0.993 -0.000  0.001  0.001
 -0.000 -0.000  0.993  0.001 -0.001
 -0.000  0.001  0.001  0.991  0.000
 -0.000  0.001 -0.001  0.000  0.991
atomic mag. moment =  -4.69523
atom    2   Tr[ns(na)] (up, down, total) =   0.26937  4.96292  5.23229
   spin  1
    eigenvalues: 
  0.028  0.028  0.029  0.092  0.092
    eigenvectors:
  0.000  0.000  1.000  0.000  0.000
  0.291  0.084  0.000  0.427  0.198
  0.084  0.291  0.000  0.198  0.427
  0.044  0.582  0.000  0.010  0.364
  0.582  0.044  0.000  0.364  0.010
    occupations:
  0.029 -0.000 -0.000 -0.000 -0.000
 -0.000  0.068 -0.000 -0.021  0.022
 -0.000 -0.000  0.068  0.022  0.021
 -0.000 -0.021  0.022  0.052  0.000
 -0.000  0.022  0.021  0.000  0.052
   spin  2
    eigenvalues: 
  0.991  0.992  0.992  0.995  0.995
    eigenvectors:
  1.000  0.000  0.000  0.000  0.000
  0.000  0.159  0.068  0.197  0.575
  0.000  0.068  0.159  0.575  0.197
  0.000  0.086  0.686  0.003  0.224
  0.000  0.686  0.086  0.224  0.003
    occupations:
  0.991 -0.000 -0.000 -0.000 -0.000
 -0.000  0.994 -0.000 -0.001  0.001
 -0.000 -0.000  0.994  0.001  0.001
 -0.000 -0.001  0.001  0.992  0.000
 -0.000  0.001  0.001  0.000  0.992
atomic mag. moment =  -4.69354
atom    3   Tr[ns(na)] (up, down, total) =   0.26783  4.95975  5.22758
   spin  1
    eigenvalues: 
  0.030  0.030  0.030  0.089  0.089
    eigenvectors:
  0.000  0.000  1.000  0.000  0.000
  0.324  0.105  0.000  0.444  0.127
  0.105  0.324  0.000  0.127  0.444
  0.033  0.537  0.000  0.031  0.399
  0.537  0.033  0.000  0.399  0.031
    occupations:
  0.030 -0.000 -0.000 -0.000 -0.000
 -0.000  0.064 -0.000 -0.020  0.021
 -0.000 -0.000  0.064  0.021  0.020
 -0.000 -0.020  0.021  0.055  0.000
 -0.000  0.021  0.020  0.000  0.055
   spin  2
    eigenvalues: 
  0.990  0.991  0.991  0.993  0.993
    eigenvectors:
  1.000  0.000  0.000  0.000  0.000
  0.000  0.070  0.040  0.101  0.789
  0.000  0.040  0.070  0.789  0.101
  0.000  0.131  0.759  0.004  0.106
  0.000  0.759  0.131  0.106  0.004
    occupations:
  0.990 -0.000 -0.000 -0.000 -0.000
 -0.000  0.993 -0.000 -0.001  0.000
 -0.000 -0.000  0.993  0.000  0.001
 -0.000 -0.001  0.000  0.992  0.000
 -0.000  0.000  0.001  0.000  0.992
atomic mag. moment =  -4.69192
atom    4   Tr[ns(na)] (up, down, total) =   4.95961  0.26813  5.22774
   spin  1
    eigenvalues: 
  0.990  0.991  0.991  0.993  0.993
    eigenvectors:
  1.000  0.000  0.000  0.000  0.000
  0.000  0.002  0.103  0.035  0.860
  0.000  0.103  0.002  0.860  0.035
  0.000  0.156  0.739  0.050  0.055
  0.000  0.739  0.156  0.055  0.050
    occupations:
  0.990 -0.000 -0.000 -0.000 -0.000
 -0.000  0.993 -0.000  0.000  0.000
 -0.000 -0.000  0.993  0.000 -0.000
 -0.000  0.000  0.000  0.992  0.000
 -0.000  0.000 -0.000  0.000  0.992
   spin  2
    eigenvalues: 
  0.030  0.030  0.030  0.089  0.089
    eigenvectors:
  0.000  0.000  1.000  0.000  0.000
  0.037  0.393  0.000  0.006  0.564
  0.393  0.037  0.000  0.564  0.006
  0.137  0.434  0.000  0.180  0.250
  0.434  0.137  0.000  0.250  0.180
    occupations:
  0.030 -0.000 -0.000 -0.000 -0.000
 -0.000  0.064 -0.000  0.021  0.021
 -0.000 -0.000  0.064  0.021 -0.021
 -0.000  0.021  0.021  0.055  0.000
 -0.000  0.021 -0.021  0.000  0.055
atomic mag. moment =   4.69148
atom    5   Tr[ns(na)] (up, down, total) =   4.95825  0.26331  5.22156
   spin  1
    eigenvalues: 
  0.990  0.991  0.991  0.993  0.993
    eigenvectors:
  1.000  0.000  0.000  0.000  0.000
  0.000  0.119  0.038  0.125  0.718
  0.000  0.038  0.119  0.718  0.125
  0.000  0.108  0.735  0.013  0.143
  0.000  0.735  0.108  0.143  0.013
    occupations:
  0.990 -0.000 -0.000 -0.000 -0.000
 -0.000  0.993 -0.000 -0.001  0.001
 -0.000 -0.000  0.993  0.001  0.001
 -0.000 -0.001  0.001  0.991  0.000
 -0.000  0.001  0.001  0.000  0.991
   spin  2
    eigenvalues: 
  0.028  0.028  0.029  0.089  0.089
    eigenvectors:
  0.000  0.000  1.000  0.000  0.000
  0.301  0.103  0.000  0.425  0.171
  0.103  0.301  0.000  0.171  0.425
  0.038  0.558  0.000  0.019  0.385
  0.558  0.038  0.000  0.385  0.019
    occupations:
  0.029 -0.000 -0.000 -0.000 -0.000
 -0.000  0.064 -0.000 -0.021  0.021
 -0.000 -0.000  0.064  0.021  0.021
 -0.000 -0.021  0.021  0.053  0.000
 -0.000  0.021  0.021  0.000  0.053
atomic mag. moment =   4.69494
atom    6   Tr[ns(na)] (up, down, total) =   4.96268  0.26936  5.23204
   spin  1
    eigenvalues: 
  0.991  0.991  0.991  0.995  0.995
    eigenvectors:
  1.000  0.000  0.000  0.000  0.000
  0.000  0.011  0.217  0.006  0.766
  0.000  0.217  0.011  0.766  0.006
  0.000  0.139  0.633  0.105  0.122
  0.000  0.633  0.139  0.122  0.105
    occupations:
  0.991 -0.000 -0.000 -0.000 -0.000
 -0.000  0.994 -0.000  0.001  0.001
 -0.000 -0.000  0.994  0.001 -0.001
 -0.000  0.001  0.001  0.992  0.000
 -0.000  0.001 -0.001  0.000  0.992
   spin  2
    eigenvalues: 
  0.028  0.028  0.029  0.092  0.092
    eigenvectors:
  0.000  0.000  1.000  0.000  0.000
  0.038  0.336  0.000  0.003  0.624
  0.336  0.038  0.000  0.624  0.003
  0.135  0.492  0.000  0.169  0.205
  0.492  0.135  0.000  0.205  0.169
    occupations:
  0.029 -0.000 -0.000 -0.000 -0.000
 -0.000  0.068 -0.000  0.021  0.022
 -0.000 -0.000  0.068  0.022 -0.021
 -0.000  0.021  0.022  0.052  0.000
 -0.000  0.022 -0.021  0.000  0.052
atomic mag. moment =   4.69332
N of occupied +U levels =   31.363643
 --- exit write_ns ---

     negative rho (up, down):  1.235E-01 1.235E-01
 --- in v_hubbard ---
Hubbard energy    0.0000
 -------

     total cpu time spent up to now is       56.9 secs

     total energy              =   -3188.41475760 Ry
     estimated scf accuracy    <      22.69564433 Ry

     total magnetization       =     0.00 Bohr mag/cell
     absolute magnetization    =    30.36 Bohr mag/cell

     iteration #  2     ecut=    35.00 Ry     beta= 0.40
     CG style diagonalization
     ethr =  7.72E-03,  avg # of iterations =  3.4
 --- enter write_ns ---
 LDA+U parameters:
alpha( 3) =  0.00000001
alpha( 4) =  0.00000001
atom    1   Tr[ns(na)] (up, down, total) =   1.10628  4.99224  6.09851
   spin  1
    eigenvalues: 
  0.155  0.164  0.164  0.311  0.311
    eigenvectors:
  1.000  0.000  0.000  0.000  0.000
  0.000  0.058  0.330  0.015  0.597
  0.000  0.330  0.058  0.597  0.015
  0.000  0.164  0.448  0.193  0.195
  0.000  0.448  0.164  0.195  0.193
    occupations:
  0.155 -0.000 -0.000 -0.000 -0.000
 -0.000  0.254 -0.000  0.042  0.058
 -0.000 -0.000  0.254  0.058 -0.042
 -0.000  0.042  0.058  0.221  0.000
 -0.000  0.058 -0.042  0.000  0.221
   spin  2
    eigenvalues: 
  0.998  0.998  0.999  0.999  0.999
    eigenvectors:
  0.000  0.000  1.000  0.000  0.000
  0.010  0.470  0.000  0.034  0.486
  0.470  0.010  0.000  0.486  0.034
  0.193  0.327  0.000  0.127  0.353
  0.327  0.193  0.000  0.353  0.127
    occupations:
  0.999 -0.000 -0.000 -0.000 -0.000
 -0.000  0.998 -0.000 -0.000 -0.000
 -0.000 -0.000  0.998 -0.000  0.000
 -0.000 -0.000 -0.000  0.998  0.000
 -0.000 -0.000  0.000  0.000  0.998
atomic mag. moment =  -3.88596
atom    2   Tr[ns(na)] (up, down, total) =   1.10545  4.99042  6.09587
   spin  1
    eigenvalues: 
  0.147  0.158  0.158  0.321  0.321
    eigenvectors:
  1.000  0.000  0.000  0.000  0.000
  0.000  0.303  0.040  0.450  0.207
  0.000  0.040  0.303  0.207  0.450
  0.000  0.070  0.586  0.003  0.341
  0.000  0.586  0.070  0.341  0.003
    occupations:
  0.147 -0.000 -0.000 -0.000 -0.000
 -0.000  0.265 -0.000 -0.049  0.060
 -0.000 -0.000  0.265  0.060  0.049
 -0.000 -0.049  0.060  0.214  0.000
 -0.000  0.060  0.049  0.000  0.214
   spin  2
    eigenvalues: 
  0.997  0.997  0.999  0.999  0.999
    eigenvectors:
  0.000  0.000  1.000  0.000  0.000
  0.456  0.164  0.000  0.301  0.078
  0.164  0.456  0.000  0.078  0.301
  0.012  0.368  0.000  0.038  0.582
  0.368  0.012  0.000  0.582  0.038
    occupations:
  0.999 -0.000 -0.000 -0.000 -0.000
 -0.000  0.998 -0.000  0.001 -0.001
 -0.000 -0.000  0.998 -0.001 -0.001
 -0.000  0.001 -0.001  0.998  0.000
 -0.000 -0.001 -0.001  0.000  0.998
atomic mag. moment =  -3.88498
atom    3   Tr[ns(na)] (up, down, total) =   1.14119  4.99044  6.13163
   spin  1
    eigenvalues: 
  0.164  0.171  0.171  0.317  0.317
    eigenvectors:
  1.000  0.000  0.000  0.000  0.000
  0.000  0.375  0.069  0.486  0.070
  0.000  0.069  0.375  0.070  0.486
  0.000  0.043  0.513  0.045  0.400
  0.000  0.513  0.043  0.400  0.045
    occupations:
  0.164 -0.000 -0.000 -0.000 -0.000
 -0.000  0.252 -0.000 -0.046  0.056
 -0.000 -0.000  0.252  0.056  0.046
 -0.000 -0.046  0.056  0.236  0.000
 -0.000  0.056  0.046  0.000  0.236
   spin  2
    eigenvalues: 
  0.997  0.997  0.999  0.999  0.999
    eigenvectors:
  0.000  0.000  1.000  0.000  0.000
  0.385  0.073  0.000  0.351  0.190
  0.073  0.385  0.000  0.190  0.351
  0.074  0.468  0.000  0.011  0.447
  0.468  0.074  0.000  0.447  0.011
    occupations:
  0.999 -0.000 -0.000 -0.000 -0.000
 -0.000  0.998 -0.000  0.001 -0.001
 -0.000 -0.000  0.998 -0.001 -0.001
 -0.000  0.001 -0.001  0.998  0.000
 -0.000 -0.001 -0.001  0.000  0.998
atomic mag. moment =  -3.84925
atom    4   Tr[ns(na)] (up, down, total) =   4.99044  1.14091  6.13135
   spin  1
    eigenvalues: 
  0.997  0.997  0.999  0.999  0.999
    eigenvectors:
  0.000  0.000  1.000  0.000  0.000
  0.009  0.450  0.000  0.027  0.514
  0.450  0.009  0.000  0.514  0.027
  0.194  0.347  0.000  0.127  0.332
  0.347  0.194  0.000  0.332  0.127
    occupations:
  0.999 -0.000 -0.000 -0.000 -0.000
 -0.000  0.998 -0.000 -0.001 -0.001
 -0.000 -0.000  0.998 -0.001  0.001
 -0.000 -0.001 -0.001  0.998  0.000
 -0.000 -0.001  0.001  0.000  0.998
   spin  2
    eigenvalues: 
  0.165  0.171  0.171  0.317  0.317
    eigenvectors:
  1.000  0.000  0.000  0.000  0.000
  0.000  0.038  0.408  0.015  0.539
  0.000  0.408  0.038  0.539  0.015
  0.000  0.170  0.384  0.194  0.252
  0.000  0.384  0.170  0.252  0.194
    occupations:
  0.165 -0.000 -0.000 -0.000 -0.000
 -0.000  0.252 -0.000  0.046  0.056
 -0.000 -0.000  0.252  0.056 -0.046
 -0.000  0.046  0.056  0.236  0.000
 -0.000  0.056 -0.046  0.000  0.236
atomic mag. moment =   3.84953
atom    5   Tr[ns(na)] (up, down, total) =   4.99223  1.10847  6.10070
   spin  1
    eigenvalues: 
  0.998  0.998  0.999  0.999  0.999
    eigenvectors:
  0.000  0.000  1.000  0.000  0.000
  0.404  0.074  0.000  0.353  0.169
  0.074  0.404  0.000  0.169  0.353
  0.068  0.455  0.000  0.013  0.465
  0.455  0.068  0.000  0.465  0.013
    occupations:
  0.999 -0.000 -0.000 -0.000 -0.000
 -0.000  0.998 -0.000  0.000 -0.000
 -0.000 -0.000  0.998 -0.000 -0.000
 -0.000  0.000 -0.000  0.998  0.000
 -0.000 -0.000 -0.000  0.000  0.998
   spin  2
    eigenvalues: 
  0.154  0.165  0.165  0.312  0.312
    eigenvectors:
  1.000  0.000  0.000  0.000  0.000
  0.000  0.348  0.040  0.526  0.086
  0.000  0.040  0.348  0.086  0.526
  0.000  0.056  0.556  0.024  0.364
  0.000  0.556  0.056  0.364  0.024
    occupations:
  0.154 -0.000 -0.000 -0.000 -0.000
 -0.000  0.255 -0.000 -0.042  0.058
 -0.000 -0.000  0.255  0.058  0.042
 -0.000 -0.042  0.058  0.222  0.000
 -0.000  0.058  0.042  0.000  0.222
atomic mag. moment =   3.88376
atom    6   Tr[ns(na)] (up, down, total) =   4.99044  1.10562  6.09606
   spin  1
    eigenvalues: 
  0.997  0.997  0.999  0.999  0.999
    eigenvectors:
  0.000  0.000  1.000  0.000  0.000
  0.006  0.615  0.000  0.054  0.325
  0.615  0.006  0.000  0.325  0.054
  0.177  0.202  0.000  0.126  0.495
  0.202  0.177  0.000  0.495  0.126
    occupations:
  0.999 -0.000 -0.000 -0.000 -0.000
 -0.000  0.998 -0.000 -0.001 -0.001
 -0.000 -0.000  0.998 -0.001  0.001
 -0.000 -0.001 -0.001  0.998  0.000
 -0.000 -0.001  0.001  0.000  0.998
   spin  2
    eigenvalues: 
  0.147  0.158  0.158  0.321  0.321
    eigenvectors:
  1.000  0.000  0.000  0.000  0.000
  0.000  0.042  0.300  0.006  0.651
  0.000  0.300  0.042  0.651  0.006
  0.000  0.166  0.491  0.174  0.169
  0.000  0.491  0.166  0.169  0.174
    occupations:
  0.147 -0.000 -0.000 -0.000 -0.000
 -0.000  0.265 -0.000  0.049  0.060
 -0.000 -0.000  0.265  0.060 -0.049
 -0.000  0.049  0.060  0.214  0.000
 -0.000  0.060 -0.049  0.000  0.214
atomic mag. moment =   3.88481
N of occupied +U levels =   36.654120
 --- exit write_ns ---

     negative rho (up, down):  1.237E-01 1.237E-01
 --- in v_hubbard ---
Hubbard energy    0.0000
 -------

     total cpu time spent up to now is      109.1 secs

     total energy              =   -3193.06368997 Ry
     estimated scf accuracy    <       7.04341484 Ry

     total magnetization       =    -0.01 Bohr mag/cell
     absolute magnetization    =    28.42 Bohr mag/cell

     iteration #  3     ecut=    35.00 Ry     beta= 0.40
     CG style diagonalization
     ethr =  2.40E-03,  avg # of iterations =  3.1
 --- enter write_ns ---
 LDA+U parameters:
alpha( 3) =  0.00000001
alpha( 4) =  0.00000001
atom    1   Tr[ns(na)] (up, down, total) =   0.74323  4.98378  5.72702
   spin  1
    eigenvalues: 
  0.095  0.100  0.100  0.224  0.224
    eigenvectors:
  1.000  0.000  0.000  0.000  0.000
  0.000  0.047  0.350  0.010  0.593
  0.000  0.350  0.047  0.593  0.010
  0.000  0.159  0.445  0.187  0.209
  0.000  0.445  0.159  0.209  0.187
    occupations:
  0.095 -0.000 -0.000 -0.000 -0.000
 -0.000  0.175 -0.000  0.038  0.047
 -0.000 -0.000  0.175  0.047 -0.038
 -0.000  0.038  0.047  0.149  0.000
 -0.000  0.047 -0.038  0.000  0.149
   spin  2
    eigenvalues: 
  0.996  0.996  0.997  0.998  0.998
    eigenvectors:
  0.000  0.000  1.000  0.000  0.000
  0.047  0.150  0.000  0.004  0.799
  0.150  0.047  0.000  0.799  0.004
  0.227  0.576  0.000  0.162  0.035
  0.576  0.227  0.000  0.035  0.162
    occupations:
  0.997 -0.000 -0.000 -0.000 -0.000
 -0.000  0.997 -0.000 -0.000 -0.001
 -0.000 -0.000  0.997 -0.001  0.000
 -0.000 -0.000 -0.001  0.996  0.000
 -0.000 -0.001  0.000  0.000  0.996
atomic mag. moment =  -4.24055
atom    2   Tr[ns(na)] (up, down, total) =   0.78098  4.98045  5.76143
   spin  1
    eigenvalues: 
  0.098  0.103  0.103  0.239  0.239
    eigenvectors:
  1.000  0.000  0.000  0.000  0.000
  0.000  0.298  0.051  0.435  0.215
  0.000  0.051  0.298  0.215  0.435
  0.000  0.066  0.585  0.004  0.346
  0.000  0.585  0.066  0.346  0.004
    occupations:
  0.098 -0.000 -0.000 -0.000 -0.000
 -0.000  0.191 -0.000 -0.043  0.049
 -0.000 -0.000  0.191  0.049  0.043
 -0.000 -0.043  0.049  0.150  0.000
 -0.000  0.049  0.043  0.000  0.150
   spin  2
    eigenvalues: 
  0.995  0.995  0.996  0.997  0.997
    eigenvectors:
  0.000  0.000  1.000  0.000  0.000
  0.547  0.018  0.000  0.378  0.057
  0.018  0.547  0.000  0.057  0.378
  0.063  0.372  0.000  0.023  0.542
  0.372  0.063  0.000  0.542  0.023
    occupations:
  0.996 -0.000 -0.000 -0.000 -0.000
 -0.000  0.996 -0.000  0.001 -0.001
 -0.000 -0.000  0.996 -0.001 -0.001
 -0.000  0.001 -0.001  0.996  0.000
 -0.000 -0.001 -0.001  0.000  0.996
atomic mag. moment =  -4.19947
atom    3   Tr[ns(na)] (up, down, total) =   0.77069  4.97861  5.74930
   spin  1
    eigenvalues: 
  0.103  0.106  0.106  0.228  0.228
    eigenvectors:
  1.000  0.000  0.000  0.000  0.000
  0.000  0.368  0.087  0.460  0.085
  0.000  0.087  0.368  0.085  0.460
  0.000  0.040  0.505  0.045  0.410
  0.000  0.505  0.040  0.410  0.045
    occupations:
  0.103 -0.000 -0.000 -0.000 -0.000
 -0.000  0.172 -0.000 -0.040  0.045
 -0.000 -0.000  0.172  0.045  0.040
 -0.000 -0.040  0.045  0.161  0.000
 -0.000  0.045  0.040  0.000  0.161
   spin  2
    eigenvalues: 
  0.994  0.994  0.996  0.997  0.997
    eigenvectors:
  0.000  0.000  1.000  0.000  0.000
  0.319  0.023  0.000  0.393  0.265
  0.023  0.319  0.000  0.265  0.393
  0.125  0.533  0.000  0.000  0.342
  0.533  0.125  0.000  0.342  0.000
    occupations:
  0.996 -0.000 -0.000 -0.000 -0.000
 -0.000  0.996 -0.000  0.001 -0.001
 -0.000 -0.000  0.996 -0.001 -0.001
 -0.000  0.001 -0.001  0.995  0.000
 -0.000 -0.001 -0.001  0.000  0.995
atomic mag. moment =  -4.20792
atom    4   Tr[ns(na)] (up, down, total) =   4.97822  0.77132  5.74954
   spin  1
    eigenvalues: 
  0.994  0.994  0.996  0.997  0.997
    eigenvectors:
  0.000  0.000  1.000  0.000  0.000
  0.020  0.341  0.000  0.024  0.615
  0.341  0.020  0.000  0.615  0.024
  0.211  0.428  0.000  0.134  0.227
  0.428  0.211  0.000  0.227  0.134
    occupations:
  0.996 -0.000 -0.000 -0.000 -0.000
 -0.000  0.996 -0.000 -0.001 -0.001
 -0.000 -0.000  0.996 -0.001  0.001
 -0.000 -0.001 -0.001  0.995  0.000
 -0.000 -0.001  0.001  0.000  0.995
   spin  2
    eigenvalues: 
  0.103  0.106  0.106  0.228  0.228
    eigenvectors:
  1.000  0.000  0.000  0.000  0.000
  0.000  0.030  0.426  0.011  0.533
  0.000  0.426  0.030  0.533  0.011
  0.000  0.166  0.378  0.190  0.266
  0.000  0.378  0.166  0.266  0.190
    occupations:
  0.103 -0.000 -0.000 -0.000 -0.000
 -0.000  0.172 -0.000  0.040  0.045
 -0.000 -0.000  0.172  0.045 -0.040
 -0.000  0.040  0.045  0.162  0.000
 -0.000  0.045 -0.040  0.000  0.162
atomic mag. moment =   4.20691
atom    5   Tr[ns(na)] (up, down, total) =   4.98270  0.74219  5.72489
   spin  1
    eigenvalues: 
  0.996  0.996  0.997  0.997  0.997
    eigenvectors:
  0.000  0.000  1.000  0.000  0.000
  0.275  0.007  0.000  0.408  0.310
  0.007  0.275  0.000  0.310  0.408
  0.152  0.566  0.000  0.002  0.280
  0.566  0.152  0.000  0.280  0.002
    occupations:
  0.997 -0.000 -0.000 -0.000 -0.000
 -0.000  0.997 -0.000  0.000 -0.001
 -0.000 -0.000  0.997 -0.001 -0.000
 -0.000  0.000 -0.001  0.996  0.000
 -0.000 -0.001 -0.000  0.000  0.996
   spin  2
    eigenvalues: 
  0.095  0.100  0.100  0.223  0.223
    eigenvectors:
  1.000  0.000  0.000  0.000  0.000
  0.000  0.339  0.057  0.495  0.108
  0.000  0.057  0.339  0.108  0.495
  0.000  0.050  0.553  0.023  0.374
  0.000  0.553  0.050  0.374  0.023
    occupations:
  0.095 -0.000 -0.000 -0.000 -0.000
 -0.000  0.174 -0.000 -0.038  0.047
 -0.000 -0.000  0.174  0.047  0.038
 -0.000 -0.038  0.047  0.149  0.000
 -0.000  0.047  0.038  0.000  0.149
atomic mag. moment =   4.24051
atom    6   Tr[ns(na)] (up, down, total) =   4.98001  0.78270  5.76271
   spin  1
    eigenvalues: 
  0.995  0.995  0.996  0.997  0.997
    eigenvectors:
  0.000  0.000  1.000  0.000  0.000
  0.024  0.536  0.000  0.091  0.348
  0.536  0.024  0.000  0.348  0.091
  0.204  0.236  0.000  0.122  0.439
  0.236  0.204  0.000  0.439  0.122
    occupations:
  0.996 -0.000 -0.000 -0.000 -0.000
 -0.000  0.996 -0.000 -0.001 -0.001
 -0.000 -0.000  0.996 -0.001  0.001
 -0.000 -0.001 -0.001  0.996  0.000
 -0.000 -0.001  0.001  0.000  0.996
   spin  2
    eigenvalues: 
  0.099  0.103  0.103  0.239  0.239
    eigenvectors:
  1.000  0.000  0.000  0.000  0.000
  0.000  0.037  0.312  0.004  0.647
  0.000  0.312  0.037  0.647  0.004
  0.000  0.162  0.489  0.170  0.179
  0.000  0.489  0.162  0.179  0.170
    occupations:
  0.099 -0.000 -0.000 -0.000 -0.000
 -0.000  0.191 -0.000  0.043  0.049
 -0.000 -0.000  0.191  0.049 -0.043
 -0.000  0.043  0.049  0.150  0.000
 -0.000  0.049 -0.043  0.000  0.150
atomic mag. moment =   4.19731
N of occupied +U levels =   34.474894
 --- exit write_ns ---

     negative rho (up, down):  1.228E-01 1.228E-01
 --- in v_hubbard ---
Hubbard energy    0.0000
 -------

     total cpu time spent up to now is      162.0 secs

     total energy              =   -3194.67664909 Ry
     estimated scf accuracy    <       2.12851961 Ry

     total magnetization       =    -0.01 Bohr mag/cell
     absolute magnetization    =    28.92 Bohr mag/cell

     iteration #  4     ecut=    35.00 Ry     beta= 0.40
     CG style diagonalization
     ethr =  7.24E-04,  avg # of iterations =  3.3
 --- enter write_ns ---
 LDA+U parameters:
alpha( 3) =  0.00000001
alpha( 4) =  0.00000001
atom    1   Tr[ns(na)] (up, down, total) =   1.48041  4.97364  6.45405
   spin  1
    eigenvalues: 
  0.235  0.247  0.247  0.376  0.376
    eigenvectors:
  1.000  0.000  0.000  0.000  0.000
  0.000  0.127  0.251  0.052  0.570
  0.000  0.251  0.127  0.570  0.052
  0.000  0.170  0.452  0.222  0.156
  0.000  0.452  0.170  0.156  0.222
    occupations:
  0.235 -0.000 -0.000 -0.000 -0.000
 -0.000  0.327 -0.000  0.025  0.058
 -0.000 -0.000  0.327  0.058 -0.025
 -0.000  0.025  0.058  0.296  0.000
 -0.000  0.058 -0.025  0.000  0.296
   spin  2
    eigenvalues: 
  0.991  0.991  0.997  0.997  0.997
    eigenvectors:
  0.000  0.000  1.000  0.000  0.000
  0.006  0.482  0.000  0.025  0.487
  0.482  0.006  0.000  0.487  0.025
  0.186  0.326  0.000  0.126  0.362
  0.326  0.186  0.000  0.362  0.126
    occupations:
  0.997 -0.000 -0.000 -0.000 -0.000
 -0.000  0.994 -0.000 -0.002 -0.002
 -0.000 -0.000  0.994 -0.002  0.002
 -0.000 -0.002 -0.002  0.994  0.000
 -0.000 -0.002  0.002  0.000  0.994
atomic mag. moment =  -3.49323
atom    2   Tr[ns(na)] (up, down, total) =   1.48829  4.93927  6.42756
   spin  1
    eigenvalues: 
  0.238  0.238  0.239  0.386  0.386
    eigenvectors:
  0.000  0.000  1.000  0.000  0.000
  0.241  0.034  0.000  0.289  0.436
  0.034  0.241  0.000  0.436  0.289
  0.103  0.622  0.000  0.006  0.270
  0.622  0.103  0.000  0.270  0.006
    occupations:
  0.239 -0.000 -0.000 -0.000 -0.000
 -0.000  0.346 -0.000 -0.045  0.049
 -0.000 -0.000  0.346  0.049  0.045
 -0.000 -0.045  0.049  0.279  0.000
 -0.000  0.049  0.045  0.000  0.279
   spin  2
    eigenvalues: 
  0.976  0.976  0.995  0.996  0.996
    eigenvectors:
  0.000  0.000  1.000  0.000  0.000
  0.453  0.194  0.000  0.292  0.061
  0.194  0.453  0.000  0.061  0.292
  0.004  0.348  0.000  0.044  0.604
  0.348  0.004  0.000  0.604  0.044
    occupations:
  0.995 -0.000 -0.000 -0.000 -0.000
 -0.000  0.983 -0.000  0.006 -0.007
 -0.000 -0.000  0.983 -0.007 -0.006
 -0.000  0.006 -0.007  0.989  0.000
 -0.000 -0.007 -0.006  0.000  0.989
atomic mag. moment =  -3.45098
atom    3   Tr[ns(na)] (up, down, total) =   1.69123  4.95942  6.65065
   spin  1
    eigenvalues: 
  0.295  0.295  0.300  0.401  0.401
    eigenvectors:
  0.000  0.000  1.000  0.000  0.000
  0.403  0.222  0.000  0.312  0.063
  0.222  0.403  0.000  0.063  0.312
  0.015  0.360  0.000  0.104  0.522
  0.360  0.015  0.000  0.522  0.104
    occupations:
  0.300 -0.000 -0.000 -0.000 -0.000
 -0.000  0.335 -0.000 -0.038  0.034
 -0.000 -0.000  0.335  0.034  0.038
 -0.000 -0.038  0.034  0.361  0.000
 -0.000  0.034  0.038  0.000  0.361
   spin  2
    eigenvalues: 
  0.986  0.986  0.996  0.996  0.996
    eigenvectors:
  0.000  0.000  1.000  0.000  0.000
  0.427  0.119  0.000  0.323  0.131
  0.119  0.427  0.000  0.131  0.323
  0.038  0.415  0.000  0.024  0.522
  0.415  0.038  0.000  0.522  0.024
    occupations:
  0.996 -0.000 -0.000 -0.000 -0.000
 -0.000  0.990 -0.000  0.004 -0.004
 -0.000 -0.000  0.990 -0.004 -0.004
 -0.000  0.004 -0.004  0.991  0.000
 -0.000 -0.004 -0.004  0.000  0.991
atomic mag. moment =  -3.26818
atom    4   Tr[ns(na)] (up, down, total) =   4.96336  1.71883  6.68220
   spin  1
    eigenvalues: 
  0.988  0.988  0.996  0.996  0.996
    eigenvectors:
  0.000  0.000  1.000  0.000  0.000
  0.008  0.517  0.000  0.039  0.436
  0.517  0.008  0.000  0.436  0.039
  0.188  0.288  0.000  0.126  0.398
  0.288  0.188  0.000  0.398  0.126
    occupations:
  0.996 -0.000 -0.000 -0.000 -0.000
 -0.000  0.992 -0.000 -0.003 -0.003
 -0.000 -0.000  0.992 -0.003  0.003
 -0.000 -0.003 -0.003  0.992  0.000
 -0.000 -0.003  0.003  0.000  0.992
   spin  2
    eigenvalues: 
  0.303  0.305  0.305  0.403  0.403
    eigenvectors:
  1.000  0.000  0.000  0.000  0.000
  0.000  0.000  0.649  0.006  0.344
  0.000  0.649  0.000  0.344  0.006
  0.000  0.158  0.192  0.199  0.451
  0.000  0.192  0.158  0.451  0.199
    occupations:
  0.303 -0.000 -0.000 -0.000 -0.000
 -0.000  0.339 -0.000  0.035  0.031
 -0.000 -0.000  0.339  0.031 -0.035
 -0.000  0.035  0.031  0.369  0.000
 -0.000  0.031 -0.035  0.000  0.369
atomic mag. moment =   3.24453
atom    5   Tr[ns(na)] (up, down, total) =   4.98206  1.58225  6.56431
   spin  1
    eigenvalues: 
  0.995  0.995  0.997  0.998  0.998
    eigenvectors:
  0.000  0.000  1.000  0.000  0.000
  0.349  0.016  0.000  0.413  0.222
  0.016  0.349  0.000  0.222  0.413
  0.123  0.512  0.000  0.000  0.364
  0.512  0.123  0.000  0.364  0.000
    occupations:
  0.997 -0.000 -0.000 -0.000 -0.000
 -0.000  0.997 -0.000  0.001 -0.001
 -0.000 -0.000  0.997 -0.001 -0.001
 -0.000  0.001 -0.001  0.996  0.000
 -0.000 -0.001 -0.001  0.000  0.996
   spin  2
    eigenvalues: 
  0.269  0.269  0.282  0.381  0.381
    eigenvectors:
  0.000  0.000  1.000  0.000  0.000
  0.346  0.001  0.000  0.430  0.224
  0.001  0.346  0.000  0.224  0.430
  0.091  0.562  0.000  0.229  0.118
  0.562  0.091  0.000  0.118  0.229
    occupations:
  0.282 -0.000 -0.000 -0.000 -0.000
 -0.000  0.342 -0.000 -0.017  0.050
 -0.000 -0.000  0.342  0.050  0.017
 -0.000 -0.017  0.050  0.308  0.000
 -0.000  0.050  0.017  0.000  0.308
atomic mag. moment =   3.39980
atom    6   Tr[ns(na)] (up, down, total) =   4.94557  1.50120  6.44677
   spin  1
    eigenvalues: 
  0.979  0.979  0.995  0.996  0.996
    eigenvectors:
  0.000  0.000  1.000  0.000  0.000
  0.007  0.654  0.000  0.066  0.273
  0.654  0.007  0.000  0.273  0.066
  0.175  0.163  0.000  0.125  0.536
  0.163  0.175  0.000  0.536  0.125
    occupations:
  0.995 -0.000 -0.000 -0.000 -0.000
 -0.000  0.985 -0.000 -0.005 -0.006
 -0.000 -0.000  0.985 -0.006  0.005
 -0.000 -0.005 -0.006  0.990  0.000
 -0.000 -0.006  0.005  0.000  0.990
   spin  2
    eigenvalues: 
  0.242  0.242  0.242  0.388  0.388
    eigenvectors:
  1.000  0.000  0.000  0.000  0.000
  0.000  0.018  0.244  0.000  0.738
  0.000  0.244  0.018  0.738  0.000
  0.000  0.185  0.553  0.135  0.127
  0.000  0.553  0.185  0.127  0.135
    occupations:
  0.242 -0.000 -0.000 -0.000 -0.000
 -0.000  0.349 -0.000  0.045  0.045
 -0.000 -0.000  0.349  0.045 -0.045
 -0.000  0.045  0.045  0.280  0.000
 -0.000  0.045 -0.045  0.000  0.280
atomic mag. moment =   3.44437
N of occupied +U levels =   39.225540
 --- exit write_ns ---

     negative rho (up, down):  1.228E-01 1.228E-01
 --- in v_hubbard ---
Hubbard energy    0.0000
 -------

     total cpu time spent up to now is      219.6 secs

     total energy              =   -3194.91274093 Ry
     estimated scf accuracy    <       1.56797039 Ry

     total magnetization       =    -0.04 Bohr mag/cell
     absolute magnetization    =    26.46 Bohr mag/cell

     iteration #  5     ecut=    35.00 Ry     beta= 0.40
     CG style diagonalization
     ethr =  5.33E-04,  avg # of iterations =  3.1
 --- enter write_ns ---
 LDA+U parameters:
alpha( 3) =  0.00000001
alpha( 4) =  0.00000001
atom    1   Tr[ns(na)] (up, down, total) =   1.40003  4.97414  6.37417
   spin  1
    eigenvalues: 
  0.222  0.222  0.302  0.327  0.327
    eigenvectors:
  0.000  0.000  1.000  0.000  0.000
  0.149  0.183  0.000  0.052  0.616
  0.183  0.149  0.000  0.616  0.052
  0.159  0.510  0.000  0.222  0.109
  0.510  0.159  0.000  0.109  0.222
    occupations:
  0.302 -0.000 -0.000 -0.000 -0.000
 -0.000  0.292 -0.000  0.016  0.047
 -0.000 -0.000  0.292  0.047 -0.016
 -0.000  0.016  0.047  0.257  0.000
 -0.000  0.047 -0.016  0.000  0.257
   spin  2
    eigenvalues: 
  0.993  0.993  0.995  0.996  0.996
    eigenvectors:
  0.000  0.000  1.000  0.000  0.000
  0.039  0.268  0.000  0.025  0.668
  0.268  0.039  0.000  0.668  0.025
  0.224  0.470  0.000  0.150  0.157
  0.470  0.224  0.000  0.157  0.150
    occupations:
  0.995 -0.000 -0.000 -0.000 -0.000
 -0.000  0.995 -0.000 -0.001 -0.001
 -0.000 -0.000  0.995 -0.001  0.001
 -0.000 -0.001 -0.001  0.994  0.000
 -0.000 -0.001  0.001  0.000  0.994
atomic mag. moment =  -3.57412
atom    2   Tr[ns(na)] (up, down, total) =   1.48254  4.95500  6.43753
   spin  1
    eigenvalues: 
  0.214  0.265  0.265  0.370  0.370
    eigenvectors:
  1.000  0.000  0.000  0.000  0.000
  0.000  0.062  0.073  0.095  0.770
  0.000  0.073  0.062  0.770  0.095
  0.000  0.177  0.688  0.001  0.134
  0.000  0.688  0.177  0.134  0.001
    occupations:
  0.214 -0.000 -0.000 -0.000 -0.000
 -0.000  0.356 -0.000 -0.035  0.010
 -0.000 -0.000  0.356  0.010  0.035
 -0.000 -0.035  0.010  0.279  0.000
 -0.000  0.010  0.035  0.000  0.279
   spin  2
    eigenvalues: 
  0.985  0.985  0.994  0.995  0.995
    eigenvectors:
  0.000  0.000  1.000  0.000  0.000
  0.472  0.176  0.000  0.297  0.054
  0.176  0.472  0.000  0.054  0.297
  0.005  0.347  0.000  0.043  0.605
  0.347  0.005  0.000  0.605  0.043
    occupations:
  0.994 -0.000 -0.000 -0.000 -0.000
 -0.000  0.989 -0.000  0.003 -0.004
 -0.000 -0.000  0.989 -0.004 -0.003
 -0.000  0.003 -0.004  0.992  0.000
 -0.000 -0.004 -0.003  0.000  0.992
atomic mag. moment =  -3.47246
atom    3   Tr[ns(na)] (up, down, total) =   1.22289  4.94117  6.16405
   spin  1
    eigenvalues: 
  0.193  0.193  0.195  0.321  0.321
    eigenvectors:
  0.000  0.000  1.000  0.000  0.000
  0.410  0.154  0.000  0.374  0.062
  0.154  0.410  0.000  0.062  0.374
  0.024  0.412  0.000  0.086  0.478
  0.412  0.024  0.000  0.478  0.086
    occupations:
  0.195 -0.000 -0.000 -0.000 -0.000
 -0.000  0.249 -0.000 -0.045  0.045
 -0.000 -0.000  0.249  0.045  0.045
 -0.000 -0.045  0.045  0.265  0.000
 -0.000  0.045  0.045  0.000  0.265
   spin  2
    eigenvalues: 
  0.981  0.981  0.993  0.993  0.993
    eigenvectors:
  0.000  0.000  1.000  0.000  0.000
  0.441  0.107  0.000  0.329  0.123
  0.107  0.441  0.000  0.123  0.329
  0.040  0.412  0.000  0.024  0.524
  0.412  0.040  0.000  0.524  0.024
    occupations:
  0.993 -0.000 -0.000 -0.000 -0.000
 -0.000  0.986 -0.000  0.004 -0.005
 -0.000 -0.000  0.986 -0.005 -0.004
 -0.000  0.004 -0.005  0.988  0.000
 -0.000 -0.005 -0.004  0.000  0.988
atomic mag. moment =  -3.71828
atom    4   Tr[ns(na)] (up, down, total) =   4.89563  1.15437  6.05000
   spin  1
    eigenvalues: 
  0.959  0.959  0.992  0.992  0.992
    eigenvectors:
  0.000  0.000  1.000  0.000  0.000
  0.001  0.627  0.000  0.033  0.339
  0.627  0.001  0.000  0.339  0.033
  0.163  0.209  0.000  0.128  0.501
  0.209  0.163  0.000  0.501  0.128
    occupations:
  0.992 -0.000 -0.000 -0.000 -0.000
 -0.000  0.972 -0.000 -0.011 -0.011
 -0.000 -0.000  0.972 -0.011  0.011
 -0.000 -0.011 -0.011  0.980  0.000
 -0.000 -0.011  0.011  0.000  0.980
   spin  2
    eigenvalues: 
  0.175  0.175  0.180  0.312  0.312
    eigenvectors:
  0.000  0.000  1.000  0.000  0.000
  0.011  0.498  0.000  0.009  0.482
  0.498  0.011  0.000  0.482  0.009
  0.177  0.314  0.000  0.190  0.319
  0.314  0.177  0.000  0.319  0.190
    occupations:
  0.180 -0.000 -0.000 -0.000 -0.000
 -0.000  0.242 -0.000  0.048  0.049
 -0.000 -0.000  0.242  0.049 -0.048
 -0.000  0.048  0.049  0.245  0.000
 -0.000  0.049 -0.048  0.000  0.245
atomic mag. moment =   3.74126
atom    5   Tr[ns(na)] (up, down, total) =   4.90234  1.09827  6.00062
   spin  1
    eigenvalues: 
  0.959  0.959  0.994  0.995  0.995
    eigenvectors:
  0.000  0.000  1.000  0.000  0.000
  0.359  0.179  0.000  0.284  0.178
  0.179  0.359  0.000  0.178  0.284
  0.037  0.425  0.000  0.028  0.510
  0.425  0.037  0.000  0.510  0.028
    occupations:
  0.994 -0.000 -0.000 -0.000 -0.000
 -0.000  0.976 -0.000  0.014 -0.011
 -0.000 -0.000  0.976 -0.011 -0.014
 -0.000  0.014 -0.011  0.978  0.000
 -0.000 -0.011 -0.014  0.000  0.978
   spin  2
    eigenvalues: 
  0.158  0.167  0.167  0.303  0.303
    eigenvectors:
  1.000  0.000  0.000  0.000  0.000
  0.000  0.367  0.027  0.569  0.037
  0.000  0.027  0.367  0.037  0.569
  0.000  0.057  0.549  0.040  0.354
  0.000  0.549  0.057  0.354  0.040
    occupations:
  0.158 -0.000 -0.000 -0.000 -0.000
 -0.000  0.250 -0.000 -0.036  0.056
 -0.000 -0.000  0.250  0.056  0.036
 -0.000 -0.036  0.056  0.221  0.000
 -0.000  0.056  0.036  0.000  0.221
atomic mag. moment =   3.80407
atom    6   Tr[ns(na)] (up, down, total) =   4.92536  1.28823  6.21359
   spin  1
    eigenvalues: 
  0.971  0.971  0.994  0.995  0.995
    eigenvectors:
  0.000  0.000  1.000  0.000  0.000
  0.004  0.598  0.000  0.038  0.360
  0.598  0.004  0.000  0.360  0.038
  0.172  0.227  0.000  0.127  0.474
  0.227  0.172  0.000  0.474  0.127
    occupations:
  0.994 -0.000 -0.000 -0.000 -0.000
 -0.000  0.981 -0.000 -0.008 -0.008
 -0.000 -0.000  0.981 -0.008  0.008
 -0.000 -0.008 -0.008  0.985  0.000
 -0.000 -0.008  0.008  0.000  0.985
   spin  2
    eigenvalues: 
  0.193  0.200  0.200  0.348  0.348
    eigenvectors:
  1.000  0.000  0.000  0.000  0.000
  0.000  0.016  0.262  0.000  0.721
  0.000  0.262  0.016  0.721  0.000
  0.000  0.174  0.547  0.136  0.143
  0.000  0.547  0.174  0.143  0.136
    occupations:
  0.193 -0.000 -0.000 -0.000 -0.000
 -0.000  0.307 -0.000  0.048  0.045
 -0.000 -0.000  0.307  0.045 -0.048
 -0.000  0.048  0.045  0.241  0.000
 -0.000  0.045 -0.048  0.000  0.241
atomic mag. moment =   3.63713
N of occupied +U levels =   37.239961
 --- exit write_ns ---

     negative rho (up, down):  1.229E-01 1.229E-01
 --- in v_hubbard ---
Hubbard energy    0.0000
 -------

     total cpu time spent up to now is      272.2 secs

     total energy              =   -3195.00090056 Ry
     estimated scf accuracy    <       0.40957919 Ry

     total magnetization       =    -0.01 Bohr mag/cell
     absolute magnetization    =    26.67 Bohr mag/cell

     iteration #  6     ecut=    35.00 Ry     beta= 0.40
     CG style diagonalization
     c_bands:  1 eigenvalues not converged
     c_bands:  1 eigenvalues not converged
     ethr =  1.39E-04,  avg # of iterations =  3.2
 --- enter write_ns ---
 LDA+U parameters:
alpha( 3) =  0.00000001
alpha( 4) =  0.00000001
atom    1   Tr[ns(na)] (up, down, total) =   1.10288  4.85528  5.95816
   spin  1
    eigenvalues: 
  0.159  0.167  0.167  0.305  0.305
    eigenvectors:
  1.000  0.000  0.000  0.000  0.000
  0.000  0.072  0.320  0.022  0.586
  0.000  0.320  0.072  0.586  0.022
  0.000  0.167  0.441  0.202  0.190
  0.000  0.441  0.167  0.190  0.202
    occupations:
  0.159 -0.000 -0.000 -0.000 -0.000
 -0.000  0.251 -0.000  0.037  0.057
 -0.000 -0.000  0.251  0.057 -0.037
 -0.000  0.037  0.057  0.221  0.000
 -0.000  0.057 -0.037  0.000  0.221
   spin  2
    eigenvalues: 
  0.936  0.936  0.994  0.995  0.995
    eigenvectors:
  0.000  0.000  1.000  0.000  0.000
  0.000  0.580  0.000  0.013  0.407
  0.580  0.000  0.000  0.407  0.013
  0.158  0.262  0.000  0.126  0.454
  0.262  0.158  0.000  0.454  0.126
    occupations:
  0.994 -0.000 -0.000 -0.000 -0.000
 -0.000  0.961 -0.000 -0.023 -0.018
 -0.000 -0.000  0.961 -0.018  0.023
 -0.000 -0.023 -0.018  0.970  0.000
 -0.000 -0.018  0.023  0.000  0.970
atomic mag. moment =  -3.75240
atom    2   Tr[ns(na)] (up, down, total) =   1.17453  4.86814  6.04267
   spin  1
    eigenvalues: 
  0.167  0.175  0.175  0.328  0.328
    eigenvectors:
  1.000  0.000  0.000  0.000  0.000
  0.000  0.261  0.046  0.349  0.344
  0.000  0.046  0.261  0.344  0.349
  0.000  0.085  0.608  0.000  0.307
  0.000  0.608  0.085  0.307  0.000
    occupations:
  0.167 -0.000 -0.000 -0.000 -0.000
 -0.000  0.281 -0.000 -0.048  0.051
 -0.000 -0.000  0.281  0.051  0.048
 -0.000 -0.048  0.051  0.222  0.000
 -0.000  0.051  0.048  0.000  0.222
   spin  2
    eigenvalues: 
  0.945  0.945  0.992  0.993  0.993
    eigenvectors:
  0.000  0.000  1.000  0.000  0.000
  0.411  0.170  0.000  0.296  0.123
  0.170  0.411  0.000  0.123  0.296
  0.024  0.396  0.000  0.032  0.548
  0.396  0.024  0.000  0.548  0.032
    occupations:
  0.992 -0.000 -0.000 -0.000 -0.000
 -0.000  0.965 -0.000  0.017 -0.016
 -0.000 -0.000  0.965 -0.016 -0.017
 -0.000  0.017 -0.016  0.973  0.000
 -0.000 -0.016 -0.017  0.000  0.973
atomic mag. moment =  -3.69362
atom    3   Tr[ns(na)] (up, down, total) =   1.24274  4.90535  6.14809
   spin  1
    eigenvalues: 
  0.192  0.192  0.201  0.329  0.329
    eigenvectors:
  0.000  0.000  1.000  0.000  0.000
  0.386  0.141  0.000  0.386  0.087
  0.141  0.386  0.000  0.087  0.386
  0.033  0.441  0.000  0.067  0.459
  0.441  0.033  0.000  0.459  0.067
    occupations:
  0.201 -0.000 -0.000 -0.000 -0.000
 -0.000  0.257 -0.000 -0.049  0.047
 -0.000 -0.000  0.257  0.047  0.049
 -0.000 -0.049  0.047  0.264  0.000
 -0.000  0.047  0.049  0.000  0.264
   spin  2
    eigenvalues: 
  0.964  0.964  0.992  0.993  0.993
    eigenvectors:
  0.000  0.000  1.000  0.000  0.000
  0.373  0.253  0.000  0.262  0.112
  0.253  0.373  0.000  0.112  0.262
  0.009  0.365  0.000  0.044  0.582
  0.365  0.009  0.000  0.582  0.044
    occupations:
  0.992 -0.000 -0.000 -0.000 -0.000
 -0.000  0.975 -0.000  0.010 -0.009
 -0.000 -0.000  0.975 -0.009 -0.010
 -0.000  0.010 -0.009  0.982  0.000
 -0.000 -0.009 -0.010  0.000  0.982
atomic mag. moment =  -3.66261
atom    4   Tr[ns(na)] (up, down, total) =   4.95285  1.37394  6.32678
   spin  1
    eigenvalues: 
  0.986  0.986  0.993  0.994  0.994
    eigenvectors:
  0.000  0.000  1.000  0.000  0.000
  0.009  0.483  0.000  0.034  0.474
  0.483  0.009  0.000  0.474  0.034
  0.191  0.317  0.000  0.127  0.365
  0.317  0.191  0.000  0.365  0.127
    occupations:
  0.993 -0.000 -0.000 -0.000 -0.000
 -0.000  0.990 -0.000 -0.003 -0.003
 -0.000 -0.000  0.990 -0.003  0.003
 -0.000 -0.003 -0.003  0.990  0.000
 -0.000 -0.003  0.003  0.000  0.990
   spin  2
    eigenvalues: 
  0.225  0.225  0.238  0.343  0.343
    eigenvectors:
  0.000  0.000  1.000  0.000  0.000
  0.000  0.626  0.000  0.009  0.364
  0.626  0.000  0.000  0.364  0.009
  0.169  0.204  0.000  0.204  0.423
  0.204  0.169  0.000  0.423  0.204
    occupations:
  0.238 -0.000 -0.000 -0.000 -0.000
 -0.000  0.269 -0.000  0.041  0.039
 -0.000 -0.000  0.269  0.039 -0.041
 -0.000  0.041  0.039  0.299  0.000
 -0.000  0.039 -0.041  0.000  0.299
atomic mag. moment =   3.57891
atom    5   Tr[ns(na)] (up, down, total) =   4.97351  1.61896  6.59247
   spin  1
    eigenvalues: 
  0.993  0.993  0.995  0.996  0.996
    eigenvectors:
  0.000  0.000  1.000  0.000  0.000
  0.311  0.002  0.000  0.444  0.242
  0.002  0.311  0.000  0.242  0.444
  0.153  0.534  0.000  0.001  0.312
  0.534  0.153  0.000  0.312  0.001
    occupations:
  0.995 -0.000 -0.000 -0.000 -0.000
 -0.000  0.995 -0.000  0.001 -0.001
 -0.000 -0.000  0.995 -0.001 -0.001
 -0.000  0.001 -0.001  0.994  0.000
 -0.000 -0.001 -0.001  0.000  0.994
   spin  2
    eigenvalues: 
  0.268  0.268  0.336  0.336  0.411
    eigenvectors:
  0.000  0.000  0.000  0.000  1.000
  0.190  0.050  0.036  0.724  0.000
  0.050  0.190  0.724  0.036  0.000
  0.135  0.625  0.224  0.016  0.000
  0.625  0.135  0.016  0.224  0.000
    occupations:
  0.411 -0.000 -0.000 -0.000 -0.000
 -0.000  0.320 -0.000  0.001  0.029
 -0.000 -0.000  0.320  0.029 -0.001
 -0.000  0.001  0.029  0.284  0.000
 -0.000  0.029 -0.001  0.000  0.284
atomic mag. moment =   3.35456
atom    6   Tr[ns(na)] (up, down, total) =   4.94558  1.42193  6.36752
   spin  1
    eigenvalues: 
  0.981  0.981  0.993  0.995  0.995
    eigenvectors:
  0.000  0.000  1.000  0.000  0.000
  0.008  0.643  0.000  0.065  0.284
  0.643  0.008  0.000  0.284  0.065
  0.177  0.172  0.000  0.125  0.525
  0.172  0.177  0.000  0.525  0.125
    occupations:
  0.993 -0.000 -0.000 -0.000 -0.000
 -0.000  0.986 -0.000 -0.004 -0.005
 -0.000 -0.000  0.986 -0.005  0.004
 -0.000 -0.004 -0.005  0.990  0.000
 -0.000 -0.005  0.004  0.000  0.990
   spin  2
    eigenvalues: 
  0.204  0.250  0.250  0.359  0.359
    eigenvectors:
  1.000  0.000  0.000  0.000  0.000
  0.000  0.000  0.159  0.027  0.813
  0.000  0.159  0.000  0.813  0.027
  0.000  0.202  0.639  0.059  0.101
  0.000  0.639  0.202  0.101  0.059
    occupations:
  0.204 -0.000 -0.000 -0.000 -0.000
 -0.000  0.342 -0.000  0.036  0.018
 -0.000 -0.000  0.342  0.018 -0.036
 -0.000  0.036  0.018  0.267  0.000
 -0.000  0.018 -0.036  0.000  0.267
atomic mag. moment =   3.52365
N of occupied +U levels =   37.435688
 --- exit write_ns ---

     negative rho (up, down):  1.230E-01 1.230E-01
 --- in v_hubbard ---
Hubbard energy    0.0000
 -------

     total cpu time spent up to now is      328.3 secs

     total energy              =   -3195.00650105 Ry
     estimated scf accuracy    <       0.71898415 Ry

     total magnetization       =     0.00 Bohr mag/cell
     absolute magnetization    =    26.20 Bohr mag/cell

     iteration #  7     ecut=    35.00 Ry     beta= 0.40
     CG style diagonalization
     ethr =  1.39E-04,  avg # of iterations =  3.0
 --- enter write_ns ---
 LDA+U parameters:
alpha( 3) =  0.00000001
alpha( 4) =  0.00000001
atom    1   Tr[ns(na)] (up, down, total) =   1.21132  4.95979  6.17111
   spin  1
    eigenvalues: 
  0.167  0.203  0.203  0.319  0.319
    eigenvectors:
  1.000  0.000  0.000  0.000  0.000
  0.000  0.087  0.233  0.022  0.657
  0.000  0.233  0.087  0.657  0.022
  0.000  0.173  0.506  0.196  0.125
  0.000  0.506  0.173  0.125  0.196
    occupations:
  0.167 -0.000 -0.000 -0.000 -0.000
 -0.000  0.282 -0.000  0.026  0.048
 -0.000 -0.000  0.282  0.048 -0.026
 -0.000  0.026  0.048  0.240  0.000
 -0.000  0.048 -0.026  0.000  0.240
   spin  2
    eigenvalues: 
  0.988  0.988  0.994  0.995  0.995
    eigenvectors:
  0.000  0.000  1.000  0.000  0.000
  0.008  0.510  0.000  0.039  0.443
  0.510  0.008  0.000  0.443  0.039
  0.189  0.293  0.000  0.127  0.392
  0.293  0.189  0.000  0.392  0.127
    occupations:
  0.994 -0.000 -0.000 -0.000 -0.000
 -0.000  0.991 -0.000 -0.002 -0.002
 -0.000 -0.000  0.991 -0.002  0.002
 -0.000 -0.002 -0.002  0.992  0.000
 -0.000 -0.002  0.002  0.000  0.992
atomic mag. moment =  -3.74846
atom    2   Tr[ns(na)] (up, down, total) =   1.14492  4.88050  6.02542
   spin  1
    eigenvalues: 
  0.161  0.170  0.170  0.322  0.322
    eigenvectors:
  1.000  0.000  0.000  0.000  0.000
  0.000  0.247  0.052  0.320  0.381
  0.000  0.052  0.247  0.381  0.320
  0.000  0.089  0.613  0.000  0.298
  0.000  0.613  0.089  0.298  0.000
    occupations:
  0.161 -0.000 -0.000 -0.000 -0.000
 -0.000  0.276 -0.000 -0.049  0.049
 -0.000 -0.000  0.276  0.049  0.049
 -0.000 -0.049  0.049  0.215  0.000
 -0.000  0.049  0.049  0.000  0.215
   spin  2
    eigenvalues: 
  0.952  0.952  0.991  0.993  0.993
    eigenvectors:
  0.000  0.000  1.000  0.000  0.000
  0.482  0.153  0.000  0.305  0.059
  0.153  0.482  0.000  0.059  0.305
  0.009  0.356  0.000  0.040  0.595
  0.356  0.009  0.000  0.595  0.040
    occupations:
  0.991 -0.000 -0.000 -0.000 -0.000
 -0.000  0.967 -0.000  0.012 -0.015
 -0.000 -0.000  0.967 -0.015 -0.012
 -0.000  0.012 -0.015  0.978  0.000
 -0.000 -0.015 -0.012  0.000  0.978
atomic mag. moment =  -3.73558
atom    3   Tr[ns(na)] (up, down, total) =   1.75915  4.95535  6.71450
   spin  1
    eigenvalues: 
  0.311  0.311  0.336  0.400  0.400
    eigenvectors:
  0.000  0.000  1.000  0.000  0.000
  0.094  0.853  0.000  0.004  0.049
  0.853  0.094  0.000  0.049  0.004
  0.012  0.040  0.000  0.182  0.766
  0.040  0.012  0.000  0.766  0.182
    occupations:
  0.336 -0.000 -0.000 -0.000 -0.000
 -0.000  0.316 -0.000 -0.020 -0.004
 -0.000 -0.000  0.316 -0.004  0.020
 -0.000 -0.020 -0.004  0.396  0.000
 -0.000 -0.004  0.020  0.000  0.396
   spin  2
    eigenvalues: 
  0.987  0.987  0.993  0.994  0.994
    eigenvectors:
  0.000  0.000  1.000  0.000  0.000
  0.402  0.079  0.000  0.348  0.171
  0.079  0.402  0.000  0.171  0.348
  0.065  0.453  0.000  0.014  0.468
  0.453  0.065  0.000  0.468  0.014
    occupations:
  0.993 -0.000 -0.000 -0.000 -0.000
 -0.000  0.991 -0.000  0.003 -0.003
 -0.000 -0.000  0.991 -0.003 -0.003
 -0.000  0.003 -0.003  0.990  0.000
 -0.000 -0.003 -0.003  0.000  0.990
atomic mag. moment =  -3.19620
atom    4   Tr[ns(na)] (up, down, total) =   4.94566  1.52905  6.47471
   spin  1
    eigenvalues: 
  0.982  0.982  0.993  0.994  0.994
    eigenvectors:
  0.000  0.000  1.000  0.000  0.000
  0.003  0.543  0.000  0.028  0.426
  0.543  0.003  0.000  0.426  0.028
  0.176  0.278  0.000  0.126  0.420
  0.278  0.176  0.000  0.420  0.126
    occupations:
  0.993 -0.000 -0.000 -0.000 -0.000
 -0.000  0.988 -0.000 -0.004 -0.004
 -0.000 -0.000  0.988 -0.004  0.004
 -0.000 -0.004 -0.004  0.989  0.000
 -0.000 -0.004  0.004  0.000  0.989
   spin  2
    eigenvalues: 
  0.258  0.258  0.264  0.375  0.375
    eigenvectors:
  0.000  0.000  1.000  0.000  0.000
  0.033  0.694  0.000  0.001  0.273
  0.694  0.033  0.000  0.273  0.001
  0.105  0.168  0.000  0.173  0.554
  0.168  0.105  0.000  0.554  0.173
    occupations:
  0.264 -0.000 -0.000 -0.000 -0.000
 -0.000  0.290 -0.000  0.047  0.023
 -0.000 -0.000  0.290  0.023 -0.047
 -0.000  0.047  0.023  0.343  0.000
 -0.000  0.023 -0.047  0.000  0.343
atomic mag. moment =   3.41662
atom    5   Tr[ns(na)] (up, down, total) =   4.91355  1.07866  5.99221
   spin  1
    eigenvalues: 
  0.966  0.966  0.993  0.994  0.994
    eigenvectors:
  0.000  0.000  1.000  0.000  0.000
  0.367  0.207  0.000  0.275  0.151
  0.207  0.367  0.000  0.151  0.275
  0.024  0.402  0.000  0.035  0.540
  0.402  0.024  0.000  0.540  0.035
    occupations:
  0.993 -0.000 -0.000 -0.000 -0.000
 -0.000  0.978 -0.000  0.011 -0.009
 -0.000 -0.000  0.978 -0.009 -0.011
 -0.000  0.011 -0.009  0.982  0.000
 -0.000 -0.009 -0.011  0.000  0.982
   spin  2
    eigenvalues: 
  0.155  0.161  0.161  0.300  0.300
    eigenvectors:
  1.000  0.000  0.000  0.000  0.000
  0.000  0.369  0.023  0.581  0.027
  0.000  0.023  0.369  0.027  0.581
  0.000  0.058  0.550  0.045  0.347
  0.000  0.550  0.058  0.347  0.045
    occupations:
  0.155 -0.000 -0.000 -0.000 -0.000
 -0.000  0.246 -0.000 -0.036  0.058
 -0.000 -0.000  0.246  0.058  0.036
 -0.000 -0.036  0.058  0.216  0.000
 -0.000  0.058  0.036  0.000  0.216
atomic mag. moment =   3.83489
atom    6   Tr[ns(na)] (up, down, total) =   4.83908  1.11391  5.95299
   spin  1
    eigenvalues: 
  0.932  0.932  0.991  0.992  0.992
    eigenvectors:
  0.000  0.000  1.000  0.000  0.000
  0.006  0.613  0.000  0.050  0.331
  0.613  0.006  0.000  0.331  0.050
  0.176  0.205  0.000  0.126  0.493
  0.205  0.176  0.000  0.493  0.126
    occupations:
  0.991 -0.000 -0.000 -0.000 -0.000
 -0.000  0.955 -0.000 -0.019 -0.022
 -0.000 -0.000  0.955 -0.022  0.019
 -0.000 -0.019 -0.022  0.969  0.000
 -0.000 -0.022  0.019  0.000  0.969
   spin  2
    eigenvalues: 
  0.155  0.162  0.162  0.318  0.318
    eigenvectors:
  1.000  0.000  0.000  0.000  0.000
  0.000  0.025  0.285  0.001  0.689
  0.000  0.285  0.025  0.689  0.001
  0.000  0.171  0.519  0.153  0.157
  0.000  0.519  0.171  0.157  0.153
    occupations:
  0.155 -0.000 -0.000 -0.000 -0.000
 -0.000  0.269 -0.000  0.050  0.052
 -0.000 -0.000  0.269  0.052 -0.050
 -0.000  0.050  0.052  0.210  0.000
 -0.000  0.052 -0.050  0.000  0.210
atomic mag. moment =   3.72517
N of occupied +U levels =   37.330938
 --- exit write_ns ---

     negative rho (up, down):  1.233E-01 1.233E-01
 --- in v_hubbard ---
Hubbard energy    0.0000
 -------

     total cpu time spent up to now is      380.5 secs

     total energy              =   -3195.00723966 Ry
     estimated scf accuracy    <       0.52201911 Ry

     total magnetization       =     0.06 Bohr mag/cell
     absolute magnetization    =    26.55 Bohr mag/cell

     iteration #  8     ecut=    35.00 Ry     beta= 0.40
     CG style diagonalization
     ethr =  1.39E-04,  avg # of iterations =  3.0
 --- enter write_ns ---
 LDA+U parameters:
alpha( 3) =  0.00000001
alpha( 4) =  0.00000001
atom    1   Tr[ns(na)] (up, down, total) =   1.51485  4.93708  6.45192
   spin  1
    eigenvalues: 
  0.245  0.245  0.334  0.334  0.358
    eigenvectors:
  0.000  0.000  0.000  0.000  1.000
  0.219  0.156  0.103  0.521  0.000
  0.156  0.219  0.521  0.103  0.000
  0.139  0.486  0.245  0.130  0.000
  0.486  0.139  0.130  0.245  0.000
    occupations:
  0.358 -0.000 -0.000 -0.000 -0.000
 -0.000  0.300 -0.000  0.009  0.042
 -0.000 -0.000  0.300  0.042 -0.009
 -0.000  0.009  0.042  0.278  0.000
 -0.000  0.042 -0.009  0.000  0.278
   spin  2
    eigenvalues: 
  0.977  0.977  0.993  0.995  0.995
    eigenvectors:
  0.000  0.000  1.000  0.000  0.000
  0.001  0.508  0.000  0.015  0.475
  0.508  0.001  0.000  0.475  0.015
  0.174  0.316  0.000  0.124  0.385
  0.316  0.174  0.000  0.385  0.124
    occupations:
  0.993 -0.000 -0.000 -0.000 -0.000
 -0.000  0.986 -0.000 -0.007 -0.005
 -0.000 -0.000  0.986 -0.005  0.007
 -0.000 -0.007 -0.005  0.986  0.000
 -0.000 -0.005  0.007  0.000  0.986
atomic mag. moment =  -3.42223
atom    2   Tr[ns(na)] (up, down, total) =   1.42438  4.89561  6.31998
   spin  1
    eigenvalues: 
  0.193  0.253  0.253  0.362  0.362
    eigenvectors:
  1.000  0.000  0.000  0.000  0.000
  0.000  0.085  0.073  0.112  0.731
  0.000  0.073  0.085  0.731  0.112
  0.000  0.167  0.675  0.000  0.158
  0.000  0.675  0.167  0.158  0.000
    occupations:
  0.193 -0.000 -0.000 -0.000 -0.000
 -0.000  0.345 -0.000 -0.037  0.014
 -0.000 -0.000  0.345  0.014  0.037
 -0.000 -0.037  0.014  0.271  0.000
 -0.000  0.014  0.037  0.000  0.271
   spin  2
    eigenvalues: 
  0.960  0.960  0.991  0.993  0.993
    eigenvectors:
  0.000  0.000  1.000  0.000  0.000
  0.453  0.187  0.000  0.294  0.067
  0.187  0.453  0.000  0.067  0.294
  0.006  0.354  0.000  0.042  0.597
  0.354  0.006  0.000  0.597  0.042
    occupations:
  0.991 -0.000 -0.000 -0.000 -0.000
 -0.000  0.971 -0.000  0.010 -0.012
 -0.000 -0.000  0.971 -0.012 -0.010
 -0.000  0.010 -0.012  0.981  0.000
 -0.000 -0.012 -0.010  0.000  0.981
atomic mag. moment =  -3.47123
atom    3   Tr[ns(na)] (up, down, total) =   1.19444  4.87053  6.06496
   spin  1
    eigenvalues: 
  0.183  0.183  0.193  0.318  0.318
    eigenvectors:
  0.000  0.000  1.000  0.000  0.000
  0.406  0.163  0.000  0.366  0.064
  0.163  0.406  0.000  0.064  0.366
  0.023  0.407  0.000  0.088  0.482
  0.407  0.023  0.000  0.482  0.088
    occupations:
  0.193 -0.000 -0.000 -0.000 -0.000
 -0.000  0.241 -0.000 -0.048  0.047
 -0.000 -0.000  0.241  0.047  0.048
 -0.000 -0.048  0.047  0.260  0.000
 -0.000  0.047  0.048  0.000  0.260
   spin  2
    eigenvalues: 
  0.951  0.951  0.990  0.990  0.990
    eigenvectors:
  0.000  0.000  1.000  0.000  0.000
  0.434  0.144  0.000  0.309  0.113
  0.144  0.434  0.000  0.113  0.309
  0.026  0.396  0.000  0.030  0.547
  0.396  0.026  0.000  0.547  0.030
    occupations:
  0.990 -0.000 -0.000 -0.000 -0.000
 -0.000  0.967 -0.000  0.014 -0.014
 -0.000 -0.000  0.967 -0.014 -0.014
 -0.000  0.014 -0.014  0.973  0.000
 -0.000 -0.014 -0.014  0.000  0.973
atomic mag. moment =  -3.67609
atom    4   Tr[ns(na)] (up, down, total) =   4.91759  1.47446  6.39205
   spin  1
    eigenvalues: 
  0.971  0.971  0.992  0.992  0.992
    eigenvectors:
  0.000  0.000  1.000  0.000  0.000
  0.003  0.581  0.000  0.035  0.381
  0.581  0.003  0.000  0.381  0.035
  0.174  0.242  0.000  0.127  0.457
  0.242  0.174  0.000  0.457  0.127
    occupations:
  0.992 -0.000 -0.000 -0.000 -0.000
 -0.000  0.980 -0.000 -0.008 -0.007
 -0.000 -0.000  0.980 -0.007  0.008
 -0.000 -0.008 -0.007  0.983  0.000
 -0.000 -0.007  0.008  0.000  0.983
   spin  2
    eigenvalues: 
  0.249  0.249  0.258  0.360  0.360
    eigenvectors:
  0.000  0.000  1.000  0.000  0.000
  0.011  0.666  0.000  0.000  0.323
  0.666  0.011  0.000  0.323  0.000
  0.132  0.191  0.000  0.182  0.495
  0.191  0.132  0.000  0.495  0.182
    occupations:
  0.258 -0.000 -0.000 -0.000 -0.000
 -0.000  0.284 -0.000  0.044  0.028
 -0.000 -0.000  0.284  0.028 -0.044
 -0.000  0.044  0.028  0.324  0.000
 -0.000  0.028 -0.044  0.000  0.324
atomic mag. moment =   3.44313
atom    5   Tr[ns(na)] (up, down, total) =   4.91268  1.18755  6.10023
   spin  1
    eigenvalues: 
  0.966  0.966  0.993  0.994  0.994
    eigenvectors:
  0.000  0.000  1.000  0.000  0.000
  0.355  0.215  0.000  0.269  0.162
  0.215  0.355  0.000  0.162  0.269
  0.026  0.405  0.000  0.035  0.534
  0.405  0.026  0.000  0.534  0.035
    occupations:
  0.993 -0.000 -0.000 -0.000 -0.000
 -0.000  0.978 -0.000  0.011 -0.009
 -0.000 -0.000  0.978 -0.009 -0.011
 -0.000  0.011 -0.009  0.982  0.000
 -0.000 -0.009 -0.011  0.000  0.982
   spin  2
    eigenvalues: 
  0.165  0.192  0.192  0.319  0.319
    eigenvectors:
  1.000  0.000  0.000  0.000  0.000
  0.000  0.345  0.013  0.608  0.034
  0.000  0.013  0.345  0.034  0.608
  0.000  0.068  0.574  0.029  0.329
  0.000  0.574  0.068  0.329  0.029
    occupations:
  0.165 -0.000 -0.000 -0.000 -0.000
 -0.000  0.274 -0.000 -0.031  0.053
 -0.000 -0.000  0.274  0.053  0.031
 -0.000 -0.031  0.053  0.237  0.000
 -0.000  0.053  0.031  0.000  0.237
atomic mag. moment =   3.72514
atom    6   Tr[ns(na)] (up, down, total) =   4.88112  1.29468  6.17581
   spin  1
    eigenvalues: 
  0.953  0.953  0.991  0.992  0.992
    eigenvectors:
  0.000  0.000  1.000  0.000  0.000
  0.004  0.586  0.000  0.039  0.370
  0.586  0.004  0.000  0.370  0.039
  0.175  0.234  0.000  0.127  0.463
  0.234  0.175  0.000  0.463  0.127
    occupations:
  0.991 -0.000 -0.000 -0.000 -0.000
 -0.000  0.969 -0.000 -0.014 -0.014
 -0.000 -0.000  0.969 -0.014  0.014
 -0.000 -0.014 -0.014  0.976  0.000
 -0.000 -0.014  0.014  0.000  0.976
   spin  2
    eigenvalues: 
  0.188  0.202  0.202  0.352  0.352
    eigenvectors:
  1.000  0.000  0.000  0.000  0.000
  0.000  0.001  0.234  0.011  0.753
  0.000  0.234  0.001  0.753  0.011
  0.000  0.178  0.587  0.098  0.137
  0.000  0.587  0.178  0.137  0.098
    occupations:
  0.188 -0.000 -0.000 -0.000 -0.000
 -0.000  0.317 -0.000  0.053  0.035
 -0.000 -0.000  0.317  0.035 -0.053
 -0.000  0.053  0.035  0.237  0.000
 -0.000  0.035 -0.053  0.000  0.237
atomic mag. moment =   3.58644
N of occupied +U levels =   37.504954
 --- exit write_ns ---

     negative rho (up, down):  1.234E-01 1.234E-01
 --- in v_hubbard ---
Hubbard energy    0.0000
 -------

     total cpu time spent up to now is      432.1 secs

     total energy              =   -3195.01948548 Ry
     estimated scf accuracy    <       0.24838555 Ry

     total magnetization       =     0.26 Bohr mag/cell
     absolute magnetization    =    26.03 Bohr mag/cell

     iteration #  9     ecut=    35.00 Ry     beta= 0.40
     CG style diagonalization
     ethr =  8.45E-05,  avg # of iterations =  3.0
 --- enter write_ns ---
 LDA+U parameters:
alpha( 3) =  0.00000001
alpha( 4) =  0.00000001
atom    1   Tr[ns(na)] (up, down, total) =   1.12792  4.92613  6.05405
   spin  1
    eigenvalues: 
  0.164  0.173  0.173  0.309  0.309
    eigenvectors:
  1.000  0.000  0.000  0.000  0.000
  0.000  0.091  0.291  0.030  0.588
  0.000  0.291  0.091  0.588  0.030
  0.000  0.163  0.455  0.208  0.174
  0.000  0.455  0.163  0.174  0.208
    occupations:
  0.164 -0.000 -0.000 -0.000 -0.000
 -0.000  0.257 -0.000  0.033  0.057
 -0.000 -0.000  0.257  0.057 -0.033
 -0.000  0.033  0.057  0.225  0.000
 -0.000  0.057 -0.033  0.000  0.225
   spin  2
    eigenvalues: 
  0.973  0.973  0.992  0.994  0.994
    eigenvectors:
  0.000  0.000  1.000  0.000  0.000
  0.002  0.519  0.000  0.017  0.462
  0.519  0.002  0.000  0.462  0.017
  0.174  0.306  0.000  0.125  0.395
  0.306  0.174  0.000  0.395  0.125
    occupations:
  0.992 -0.000 -0.000 -0.000 -0.000
 -0.000  0.983 -0.000 -0.008 -0.006
 -0.000 -0.000  0.983 -0.006  0.008
 -0.000 -0.008 -0.006  0.984  0.000
 -0.000 -0.006  0.008  0.000  0.984
atomic mag. moment =  -3.79822
atom    2   Tr[ns(na)] (up, down, total) =   1.37493  4.90612  6.28105
   spin  1
    eigenvalues: 
  0.199  0.225  0.225  0.363  0.363
    eigenvectors:
  1.000  0.000  0.000  0.000  0.000
  0.000  0.113  0.087  0.150  0.649
  0.000  0.087  0.113  0.649  0.150
  0.000  0.135  0.665  0.000  0.200
  0.000  0.665  0.135  0.200  0.000
    occupations:
  0.199 -0.000 -0.000 -0.000 -0.000
 -0.000  0.335 -0.000 -0.050  0.023
 -0.000 -0.000  0.335  0.023  0.050
 -0.000 -0.050  0.023  0.253  0.000
 -0.000  0.023  0.050  0.000  0.253
   spin  2
    eigenvalues: 
  0.965  0.965  0.991  0.992  0.992
    eigenvectors:
  0.000  0.000  1.000  0.000  0.000
  0.456  0.167  0.000  0.301  0.077
  0.167  0.456  0.000  0.077  0.301
  0.011  0.366  0.000  0.039  0.584
  0.366  0.011  0.000  0.584  0.039
    occupations:
  0.991 -0.000 -0.000 -0.000 -0.000
 -0.000  0.975 -0.000  0.009 -0.010
 -0.000 -0.000  0.975 -0.010 -0.009
 -0.000  0.009 -0.010  0.982  0.000
 -0.000 -0.010 -0.009  0.000  0.982
atomic mag. moment =  -3.53119
atom    3   Tr[ns(na)] (up, down, total) =   1.38079  4.90775  6.28855
   spin  1
    eigenvalues: 
  0.227  0.227  0.229  0.348  0.348
    eigenvectors:
  0.000  0.000  1.000  0.000  0.000
  0.350  0.304  0.000  0.248  0.099
  0.304  0.350  0.000  0.099  0.248
  0.017  0.330  0.000  0.105  0.548
  0.330  0.017  0.000  0.548  0.105
    occupations:
  0.229 -0.000 -0.000 -0.000 -0.000
 -0.000  0.269 -0.000 -0.048  0.032
 -0.000 -0.000  0.269  0.032  0.048
 -0.000 -0.048  0.032  0.306  0.000
 -0.000  0.032  0.048  0.000  0.306
   spin  2
    eigenvalues: 
  0.967  0.967  0.991  0.991  0.991
    eigenvectors:
  0.000  0.000  1.000  0.000  0.000
  0.441  0.145  0.000  0.309  0.105
  0.145  0.441  0.000  0.105  0.309
  0.024  0.390  0.000  0.032  0.554
  0.390  0.024  0.000  0.554  0.032
    occupations:
  0.991 -0.000 -0.000 -0.000 -0.000
 -0.000  0.977 -0.000  0.008 -0.009
 -0.000 -0.000  0.977 -0.009 -0.008
 -0.000  0.008 -0.009  0.981  0.000
 -0.000 -0.009 -0.008  0.000  0.981
atomic mag. moment =  -3.52696
atom    4   Tr[ns(na)] (up, down, total) =   4.88392  1.25190  6.13582
   spin  1
    eigenvalues: 
  0.957  0.957  0.990  0.990  0.990
    eigenvectors:
  0.000  0.000  1.000  0.000  0.000
  0.007  0.588  0.000  0.049  0.356
  0.588  0.007  0.000  0.356  0.049
  0.180  0.226  0.000  0.126  0.469
  0.226  0.180  0.000  0.469  0.126
    occupations:
  0.990 -0.000 -0.000 -0.000 -0.000
 -0.000  0.970 -0.000 -0.011 -0.012
 -0.000 -0.000  0.970 -0.012  0.011
[...]

     total cpu time spent up to now is     1074.5 secs

     End of self-consistent calculation

 ------ SPIN UP ------------


          k = 0.0000 0.0000 0.0000 (  8497 PWs)   bands (ev):

   -78.4906 -78.1771 -78.0587 -73.4889 -73.4031 -73.3040 -44.5111 -44.4547
   -44.4546 -44.1708 -44.1707 -44.1656 -44.1564 -43.9993 -43.9993 -39.6404
   -39.5960 -39.5959 -39.5453 -39.5159 -39.5159 -39.4818 -39.4097 -39.4097
   -10.7217 -10.7217 -10.6975 -10.6975 -10.6840 -10.6696 -10.6544 -10.6544
   -10.6388 -10.6388 -10.6308 -10.6308 -10.6101 -10.6101 -10.5843 -10.5746
   -10.5633 -10.5633 -10.5541 -10.5541 -10.5381 -10.5381 -10.5324 -10.5252
   -10.5252 -10.5211 -10.5003 -10.5003 -10.4891 -10.4891  -7.3882  -6.9985
    -6.8644  -6.0491  -5.9682  -5.6004  -5.6002  -5.5001  -5.5001  -5.4340
    -5.4339  -5.4072  -5.3084  -5.3083  -5.1080  -5.1080  -4.9525  -4.9524
     1.5755   1.6924   1.7229   2.4136   2.5373   3.3151   5.4031   5.4031
     5.4811   5.9387   5.9388   6.0191   6.0638   6.0638   6.2407   6.2991
     6.2991   6.5114   6.5446   6.5446   6.5453   6.6986   6.6986   6.8620
     6.8621   6.9963   7.1244   7.2535   7.2536   7.6362   7.6363   7.6654
     7.8164   8.1723   8.1724   8.4020   8.5107   8.5107   8.6850   8.6850
     8.9115   9.0945   9.0946   9.1466   9.2547   9.2547   9.3250   9.4341
     9.4342   9.4435   9.5531   9.5532   9.7146   9.7147  10.0186  10.0186
    10.0642  10.0643  10.0855  10.1298  10.1299  10.4940  10.4941  10.6326
    10.8415  10.9774  11.0568  11.0568  11.1469  11.1743  11.2877  11.8925
    11.8926  12.6413  12.6414  12.9276  12.9276  13.1043  13.1881  13.1962
    13.1962  13.2275  13.3703  13.3703  14.2348  14.2348  14.9875  14.9875
    15.5078  15.6226  15.6226  15.7209  15.7814  15.9092  17.1302  17.1302
    17.1544  17.1544  17.2558  17.2558  17.5359  17.6004  17.6703  17.6704
    17.7278  17.7278  18.1430  18.1430  19.5773  20.5888  21.1298  21.2566
    21.5316  21.5316  22.0602  22.1982  22.5656  22.5656  22.6492  22.6493
    22.7689  22.7689  23.9860  23.9861  24.0534  24.0534  24.1612  24.3885

     occupation numbers 
     1.0000   1.0000   1.0000   1.0000   1.0000   1.0000   1.0000   1.0000
     1.0000   1.0000   1.0000   1.0000   1.0000   1.0000   1.0000   1.0000
     1.0000   1.0000   1.0000   1.0000   1.0000   1.0000   1.0000   1.0000
     1.0000   1.0000   1.0000   1.0000   1.0000   1.0000   1.0000   1.0000
     1.0000   1.0000   1.0000   1.0000   1.0000   1.0000   1.0000   1.0000
     1.0000   1.0000   1.0000   1.0000   1.0000   1.0000   1.0000   1.0000
     1.0000   1.0000   1.0000   1.0000   1.0000   1.0000   1.0000   1.0000
     1.0000   1.0000   1.0000   1.0000   1.0000   1.0000   1.0000   1.0000
     1.0000   1.0000   1.0000   1.0000   1.0000   1.0000   1.0000   1.0000
     1.0000   1.0000   1.0000   1.0000   1.0000   1.0000   1.0000   1.0000
     1.0000   1.0000   1.0000   1.0000   1.0000   1.0000   1.0000   1.0000
     1.0000   1.0000   1.0000   1.0000   1.0000   1.0000   1.0000   1.0000
     1.0000   1.0000   1.0000   1.0000   1.0000   1.0000   1.0000   1.0000
     1.0000   1.0000   1.0000   1.0000   1.0000   1.0000   1.0000   1.0000
     1.0000   1.0000   1.0000   1.0000   1.0000   1.0000   1.0000   1.0000
     1.0000   1.0000   1.0000   1.0000   1.0000   1.0000   1.0000   1.0000
     1.0000   1.0000   1.0000   1.0000   1.0000   1.0000   1.0000   1.0000
     1.0000   1.0000   1.0000   1.0000   1.0000   1.0000   1.0000   1.0000
     1.0000   1.0294   1.0294  -0.0300  -0.0300  -0.0022  -0.0001  -0.0001
    -0.0001  -0.0000  -0.0000  -0.0000  -0.0000  -0.0000  -0.0000  -0.0000
    -0.0000  -0.0000  -0.0000  -0.0000  -0.0000  -0.0000  -0.0000  -0.0000
    -0.0000  -0.0000  -0.0000  -0.0000  -0.0000  -0.0000  -0.0000  -0.0000
    -0.0000  -0.0000  -0.0000  -0.0000  -0.0000  -0.0000  -0.0000  -0.0000
    -0.0000  -0.0000  -0.0000  -0.0000  -0.0000  -0.0000  -0.0000  -0.0000
    -0.0000  -0.0000  -0.0000  -0.0000  -0.0000  -0.0000  -0.0000  -0.0000

          k = 0.0000-0.5774 0.0000 (  8560 PWs)   bands (ev):

   -78.4906 -78.1771 -78.0587 -73.4889 -73.4031 -73.3040 -44.5110 -44.4547
   -44.4547 -44.1708 -44.1708 -44.1655 -44.1563 -43.9994 -43.9994 -39.6404
   -39.5960 -39.5960 -39.5453 -39.5160 -39.5159 -39.4818 -39.4098 -39.4097
   -10.7183 -10.6979 -10.6870 -10.6819 -10.6746 -10.6681 -10.6522 -10.6376
   -10.6318 -10.6260 -10.6182 -10.6165 -10.6131 -10.6094 -10.5828 -10.5741
   -10.5680 -10.5633 -10.5567 -10.5556 -10.5525 -10.5457 -10.5414 -10.5296
   -10.5286 -10.5182 -10.5164 -10.5062 -10.5036 -10.4922  -6.6796  -6.6464
    -6.4831  -6.2801  -6.2328  -5.8916  -5.8077  -5.7483  -5.6308  -5.5638
    -5.5017  -5.4807  -5.4034  -5.3369  -5.2139  -5.1563  -5.0525  -4.9773
     1.5108   1.7658   1.8085   2.0627   2.1384   2.3119   5.5767   5.8557
     5.8755   6.0181   6.2045   6.2513   6.3283   6.3709   6.3932   6.5702
     6.6105   6.6739   6.7964   6.8441   7.0842   7.1113   7.1847   7.3019
     7.3484   7.4778   7.5633   7.6020   7.7432   7.8475   7.8664   7.9809
     8.0350   8.1808   8.2207   8.3386   8.3569   8.3726   8.5009   8.5656
     8.7240   8.7971   8.8847   8.9979   9.0386   9.1198   9.1534   9.2369
     9.2667   9.3663   9.4378   9.5311   9.6406   9.7400   9.8205   9.8454
     9.8687   9.9566   9.9873  10.0955  10.1687  10.2603  10.3001  10.5150
    10.7005  10.7758  10.9908  11.0732  11.1752  11.3564  11.5401  11.8431
    11.8738  11.9430  12.5653  12.9009  13.0299  13.1044  13.1856  13.2257
    13.3117  13.3538  13.5171  13.6352  14.2480  14.2938  14.4993  14.7812
    14.8317  15.2028  15.3927  15.6866  15.7540  15.8718  15.9536  16.0116
    16.1142  16.1604  16.2494  16.9795  17.1346  17.2591  17.3283  17.3997
    17.4784  17.5404  17.6245  17.6998  21.3595  21.5667  21.8579  22.2653
    22.4396  22.5422  22.9131  22.9739  23.0509  23.1949  23.3128  23.3445
    23.4263  23.4616  23.9385  23.9660  24.1522  24.1828  24.3213  24.4372

     occupation numbers 
     1.0000   1.0000   1.0000   1.0000   1.0000   1.0000   1.0000   1.0000
     1.0000   1.0000   1.0000   1.0000   1.0000   1.0000   1.0000   1.0000
     1.0000   1.0000   1.0000   1.0000   1.0000   1.0000   1.0000   1.0000
     1.0000   1.0000   1.0000   1.0000   1.0000   1.0000   1.0000   1.0000
     1.0000   1.0000   1.0000   1.0000   1.0000   1.0000   1.0000   1.0000
     1.0000   1.0000   1.0000   1.0000   1.0000   1.0000   1.0000   1.0000
     1.0000   1.0000   1.0000   1.0000   1.0000   1.0000   1.0000   1.0000
     1.0000   1.0000   1.0000   1.0000   1.0000   1.0000   1.0000   1.0000
     1.0000   1.0000   1.0000   1.0000   1.0000   1.0000   1.0000   1.0000
     1.0000   1.0000   1.0000   1.0000   1.0000   1.0000   1.0000   1.0000
     1.0000   1.0000   1.0000   1.0000   1.0000   1.0000   1.0000   1.0000
     1.0000   1.0000   1.0000   1.0000   1.0000   1.0000   1.0000   1.0000
     1.0000   1.0000   1.0000   1.0000   1.0000   1.0000   1.0000   1.0000
     1.0000   1.0000   1.0000   1.0000   1.0000   1.0000   1.0000   1.0000
     1.0000   1.0000   1.0000   1.0000   1.0000   1.0000   1.0000   1.0000
     1.0000   1.0000   1.0000   1.0000   1.0000   1.0000   1.0000   1.0000
     1.0000   1.0000   1.0000   1.0000   1.0000   1.0000   1.0000   1.0000
     1.0000   1.0000   1.0000   1.0000   1.0000   1.0000   1.0000   1.0000
     1.0000   1.0000   1.0227  -0.0039  -0.0141  -0.0022  -0.0001  -0.0000
    -0.0000  -0.0000  -0.0000  -0.0000  -0.0000  -0.0000  -0.0000  -0.0000
    -0.0000  -0.0000  -0.0000  -0.0000  -0.0000  -0.0000  -0.0000  -0.0000
    -0.0000  -0.0000  -0.0000  -0.0000  -0.0000  -0.0000  -0.0000  -0.0000
    -0.0000  -0.0000  -0.0000  -0.0000  -0.0000  -0.0000  -0.0000  -0.0000
    -0.0000  -0.0000  -0.0000  -0.0000  -0.0000  -0.0000  -0.0000  -0.0000
    -0.0000  -0.0000  -0.0000  -0.0000  -0.0000  -0.0000  -0.0000  -0.0000

 ------ SPIN DOWN ----------


          k = 0.0000 0.0000 0.0000 (  8497 PWs)   bands (ev):

   -78.4918 -78.1812 -78.0528 -73.4872 -73.3991 -73.3106 -44.5116 -44.4562
   -44.4562 -44.1748 -44.1748 -44.1605 -44.1598 -43.9935 -43.9935 -39.6390
   -39.5943 -39.5943 -39.5413 -39.5120 -39.5120 -39.4883 -39.4162 -39.4162
   -10.7209 -10.7209 -10.6984 -10.6984 -10.6821 -10.6716 -10.6536 -10.6536
   -10.6387 -10.6386 -10.6321 -10.6321 -10.6097 -10.6097 -10.5854 -10.5733
   -10.5634 -10.5634 -10.5539 -10.5539 -10.5382 -10.5382 -10.5329 -10.5251
   -10.5251 -10.5207 -10.5008 -10.5008 -10.4887 -10.4887  -7.3878  -6.9985
    -6.8644  -6.0487  -5.9684  -5.5983  -5.5981  -5.5005  -5.5004  -5.4339
    -5.4338  -5.4076  -5.3091  -5.3090  -5.1090  -5.1090  -4.9524  -4.9523
     1.5758   1.6919   1.7231   2.4136   2.5373   3.3151   5.4033   5.4033
     5.4814   5.9389   5.9389   6.0191   6.0636   6.0637   6.2407   6.2992
     6.2992   6.5114   6.5444   6.5444   6.5452   6.6973   6.6974   6.8637
     6.8638   6.9959   7.1246   7.2535   7.2535   7.6360   7.6360   7.6655
     7.8170   8.1719   8.1720   8.4020   8.5104   8.5104   8.6853   8.6854
     8.9118   9.0940   9.0941   9.1469   9.2549   9.2549   9.3252   9.4340
     9.4340   9.4426   9.5533   9.5534   9.7142   9.7143  10.0188  10.0189
    10.0649  10.0650  10.0861  10.1300  10.1300  10.4941  10.4942  10.6342
    10.8410  10.9767  11.0575  11.0575  11.1471  11.1747  11.2876  11.8940
    11.8940  12.6415  12.6415  12.9283  12.9283  13.1057  13.1874  13.1965
    13.1965  13.2258  13.3676  13.3676  14.2347  14.2347  14.9860  14.9861
    15.5082  15.6224  15.6224  15.7201  15.7817  15.9092  17.1301  17.1301
    17.1557  17.1557  17.2548  17.2549  17.5358  17.6004  17.6705  17.6705
    17.7276  17.7276  18.1427  18.1427  19.5783  20.5890  21.1306  21.2558
    21.5319  21.5319  22.0596  22.1977  22.5654  22.5654  22.6494  22.6494
    22.7689  22.7689  23.9858  23.9860  24.0534  24.0535  24.1619  24.3904

     occupation numbers 
     1.0000   1.0000   1.0000   1.0000   1.0000   1.0000   1.0000   1.0000
     1.0000   1.0000   1.0000   1.0000   1.0000   1.0000   1.0000   1.0000
     1.0000   1.0000   1.0000   1.0000   1.0000   1.0000   1.0000   1.0000
     1.0000   1.0000   1.0000   1.0000   1.0000   1.0000   1.0000   1.0000
     1.0000   1.0000   1.0000   1.0000   1.0000   1.0000   1.0000   1.0000
     1.0000   1.0000   1.0000   1.0000   1.0000   1.0000   1.0000   1.0000
     1.0000   1.0000   1.0000   1.0000   1.0000   1.0000   1.0000   1.0000
     1.0000   1.0000   1.0000   1.0000   1.0000   1.0000   1.0000   1.0000
     1.0000   1.0000   1.0000   1.0000   1.0000   1.0000   1.0000   1.0000
     1.0000   1.0000   1.0000   1.0000   1.0000   1.0000   1.0000   1.0000
     1.0000   1.0000   1.0000   1.0000   1.0000   1.0000   1.0000   1.0000
     1.0000   1.0000   1.0000   1.0000   1.0000   1.0000   1.0000   1.0000
     1.0000   1.0000   1.0000   1.0000   1.0000   1.0000   1.0000   1.0000
     1.0000   1.0000   1.0000   1.0000   1.0000   1.0000   1.0000   1.0000
     1.0000   1.0000   1.0000   1.0000   1.0000   1.0000   1.0000   1.0000
     1.0000   1.0000   1.0000   1.0000   1.0000   1.0000   1.0000   1.0000
     1.0000   1.0000   1.0000   1.0000   1.0000   1.0000   1.0000   1.0000
     1.0000   1.0000   1.0000   1.0000   1.0000   1.0000   1.0000   1.0000
     1.0000   1.0293   1.0293  -0.0304  -0.0304  -0.0021  -0.0001  -0.0001
    -0.0001  -0.0000  -0.0000  -0.0000  -0.0000  -0.0000  -0.0000  -0.0000
    -0.0000  -0.0000  -0.0000  -0.0000  -0.0000  -0.0000  -0.0000  -0.0000
    -0.0000  -0.0000  -0.0000  -0.0000  -0.0000  -0.0000  -0.0000  -0.0000
    -0.0000  -0.0000  -0.0000  -0.0000  -0.0000  -0.0000  -0.0000  -0.0000
    -0.0000  -0.0000  -0.0000  -0.0000  -0.0000  -0.0000  -0.0000  -0.0000
    -0.0000  -0.0000  -0.0000  -0.0000  -0.0000  -0.0000  -0.0000  -0.0000

          k = 0.0000-0.5774 0.0000 (  8560 PWs)   bands (ev):

   -78.4918 -78.1812 -78.0528 -73.4872 -73.3991 -73.3106 -44.5116 -44.4563
   -44.4562 -44.1749 -44.1748 -44.1604 -44.1597 -43.9936 -43.9935 -39.6390
   -39.5944 -39.5944 -39.5413 -39.5121 -39.5120 -39.4883 -39.4162 -39.4162
   -10.7173 -10.6989 -10.6849 -10.6800 -10.6767 -10.6701 -10.6520 -10.6360
   -10.6316 -10.6275 -10.6193 -10.6179 -10.6116 -10.6089 -10.5839 -10.5727
   -10.5684 -10.5635 -10.5566 -10.5552 -10.5535 -10.5452 -10.5414 -10.5297
   -10.5287 -10.5179 -10.5167 -10.5060 -10.5039 -10.4919  -6.6781  -6.6466
    -6.4835  -6.2801  -6.2330  -5.8910  -5.8077  -5.7471  -5.6312  -5.5636
    -5.5012  -5.4800  -5.4043  -5.3372  -5.2145  -5.1572  -5.0526  -4.9774
     1.5110   1.7655   1.8087   2.0629   2.1380   2.3119   5.5772   5.8546
     5.8774   6.0180   6.2030   6.2514   6.3293   6.3711   6.3938   6.5698
     6.6103   6.6744   6.7970   6.8422   7.0843   7.1117   7.1847   7.3027
     7.3487   7.4776   7.5633   7.6019   7.7427   7.8479   7.8673   7.9807
     8.0346   8.1810   8.2212   8.3380   8.3563   8.3726   8.5006   8.5659
     8.7235   8.7980   8.8839   8.9976   9.0394   9.1197   9.1533   9.2379
     9.2663   9.3662   9.4370   9.5312   9.6401   9.7396   9.8209   9.8450
     9.8689   9.9563   9.9868  10.0960  10.1685  10.2627  10.3009  10.5144
    10.7014  10.7767  10.9906  11.0740  11.1750  11.3570  11.5407  11.8447
    11.8726  11.9449  12.5654  12.9023  13.0289  13.1045  13.1864  13.2263
    13.3102  13.3528  13.5163  13.6323  14.2480  14.2930  14.4993  14.7805
    14.8304  15.2026  15.3926  15.6868  15.7552  15.8712  15.9531  16.0110
    16.1149  16.1599  16.2492  16.9795  17.1344  17.2592  17.3283  17.3998
    17.4789  17.5398  17.6238  17.7001  21.3613  21.5682  21.8585  22.2644
    22.4385  22.5413  22.9130  22.9741  23.0511  23.1956  23.3132  23.3440
    23.4256  23.4612  23.9390  23.9664  24.1527  24.1820  24.3213  24.4353

     occupation numbers 
     1.0000   1.0000   1.0000   1.0000   1.0000   1.0000   1.0000   1.0000
     1.0000   1.0000   1.0000   1.0000   1.0000   1.0000   1.0000   1.0000
     1.0000   1.0000   1.0000   1.0000   1.0000   1.0000   1.0000   1.0000
     1.0000   1.0000   1.0000   1.0000   1.0000   1.0000   1.0000   1.0000
     1.0000   1.0000   1.0000   1.0000   1.0000   1.0000   1.0000   1.0000
     1.0000   1.0000   1.0000   1.0000   1.0000   1.0000   1.0000   1.0000
     1.0000   1.0000   1.0000   1.0000   1.0000   1.0000   1.0000   1.0000
     1.0000   1.0000   1.0000   1.0000   1.0000   1.0000   1.0000   1.0000
     1.0000   1.0000   1.0000   1.0000   1.0000   1.0000   1.0000   1.0000
     1.0000   1.0000   1.0000   1.0000   1.0000   1.0000   1.0000   1.0000
     1.0000   1.0000   1.0000   1.0000   1.0000   1.0000   1.0000   1.0000
     1.0000   1.0000   1.0000   1.0000   1.0000   1.0000   1.0000   1.0000
     1.0000   1.0000   1.0000   1.0000   1.0000   1.0000   1.0000   1.0000
     1.0000   1.0000   1.0000   1.0000   1.0000   1.0000   1.0000   1.0000
     1.0000   1.0000   1.0000   1.0000   1.0000   1.0000   1.0000   1.0000
     1.0000   1.0000   1.0000   1.0000   1.0000   1.0000   1.0000   1.0000
     1.0000   1.0000   1.0000   1.0000   1.0000   1.0000   1.0000   1.0000
     1.0000   1.0000   1.0000   1.0000   1.0000   1.0000   1.0000   1.0000
     1.0000   1.0000   1.0228  -0.0058  -0.0144  -0.0022  -0.0001  -0.0000
    -0.0000  -0.0000  -0.0000  -0.0000  -0.0000  -0.0000  -0.0000  -0.0000
    -0.0000  -0.0000  -0.0000  -0.0000  -0.0000  -0.0000  -0.0000  -0.0000
    -0.0000  -0.0000  -0.0000  -0.0000  -0.0000  -0.0000  -0.0000  -0.0000
    -0.0000  -0.0000  -0.0000  -0.0000  -0.0000  -0.0000  -0.0000  -0.0000
    -0.0000  -0.0000  -0.0000  -0.0000  -0.0000  -0.0000  -0.0000  -0.0000
    -0.0000  -0.0000  -0.0000  -0.0000  -0.0000  -0.0000  -0.0000  -0.0000

     the Fermi energy is    12.7839 ev

!    total energy              =   -3195.03767893 Ry
     estimated scf accuracy    <       0.00000790 Ry
     smearing contrib. (-TS)   =       0.00286803 Ry
     internal energy E=F+TS    =   -3195.04054696 Ry

     The total energy is F=E-TS. E is the sum of the following terms:
     one-electron contribution =   -1267.28390554 Ry
     hartree contribution      =     826.37523472 Ry
     xc contribution           =    -695.65054798 Ry
     ewald contribution        =   -2058.48132819 Ry
     Hubbard energy            =       0.00000003 Ry

     total magnetization       =     0.00 Bohr mag/cell
     absolute magnetization    =    27.31 Bohr mag/cell

     convergence has been achieved in  20 iterations

     Writing output data file /home/aldair1809/Documentos/QE/4BFO/hubbard_pbe_mp/alpha0/bifeo3-Uhubbard.save/

     init_run     :     16.14s CPU     16.40s WALL (       1 calls)
     electrons    :   1040.44s CPU   1057.68s WALL (       1 calls)

     Called by init_run:
     wfcinit      :     14.90s CPU     15.00s WALL (       1 calls)
     wfcinit:atom :      0.02s CPU      0.02s WALL (       4 calls)
     wfcinit:wfcr :     10.54s CPU     10.62s WALL (       4 calls)
     potinit      :      0.18s CPU      0.19s WALL (       1 calls)
     hinit0       :      0.45s CPU      0.46s WALL (       1 calls)

     Called by electrons:
     c_bands      :    945.57s CPU    956.30s WALL (      20 calls)
     sum_band     :     81.99s CPU     85.87s WALL (      20 calls)
     v_of_rho     :      1.53s CPU      1.58s WALL (      21 calls)
     v_h          :      0.04s CPU      0.04s WALL (      21 calls)
     v_xc         :      1.50s CPU      1.54s WALL (      21 calls)
     newd         :     11.36s CPU     14.04s WALL (      21 calls)
     mix_rho      :      0.40s CPU      0.41s WALL (      20 calls)

     Called by c_bands:
     init_us_2    :      1.48s CPU      1.49s WALL (     168 calls)
     ccgdiagg     :    705.88s CPU    714.81s WALL (      80 calls)
     wfcrot       :    248.83s CPU    250.72s WALL (      80 calls)

     Called by sum_band:
     sum_band:wei :      0.03s CPU      0.03s WALL (      20 calls)
     sum_band:loo :     63.85s CPU     64.89s WALL (      20 calls)
     sum_band:buf :      0.30s CPU      0.30s WALL (      80 calls)
     sum_band:ini :      0.71s CPU      0.71s WALL (      80 calls)
     sum_band:cal :     49.10s CPU     49.17s WALL (      80 calls)
     sum_band:bec :      0.41s CPU      0.41s WALL (      80 calls)
     addusdens    :     14.61s CPU     17.42s WALL (      20 calls)
     addusd:skk   :      0.06s CPU      0.06s WALL (      80 calls)
     addusd:dgemm :      7.21s CPU      9.56s WALL (     160 calls)
     addusd:qvan2 :      7.13s CPU      7.14s WALL (     160 calls)

     Called by *cgdiagg:
     h_psi        :    438.14s CPU    446.31s WALL (   34524 calls)
     s_psi        :    277.44s CPU    278.48s WALL (   68972 calls)

     Called by h_psi:
     h_psi:calbec :    163.81s CPU    166.65s WALL (   34524 calls)
     vloc_psi     :     82.08s CPU     86.89s WALL (   34524 calls)
     add_vuspsi   :    165.48s CPU    165.84s WALL (   34524 calls)
     vhpsi        :     25.61s CPU     25.84s WALL (   34524 calls)
     hs_1psi      :    416.30s CPU    423.27s WALL (   34444 calls)
     s_1psi       :    220.68s CPU    222.19s WALL (   34444 calls)

     General routines
     calbec       :    341.46s CPU    345.84s WALL (  103656 calls)
     fft          :      0.46s CPU      0.49s WALL (     439 calls)
     ffts         :      0.05s CPU      0.06s WALL (      40 calls)
     fftw         :     81.45s CPU     86.44s WALL (  116920 calls)
     davcio       :      0.00s CPU      0.00s WALL (       4 calls)

     Parallel routines
     fft_scatt_xy :     12.78s CPU     13.62s WALL (  117399 calls)
     fft_scatt_yz :     16.29s CPU     17.69s WALL (  117399 calls)

     Hubbard U routines
     new_ns       :      3.11s CPU      3.11s WALL (      20 calls)
     new_ns       :      3.11s CPU      3.11s WALL (      20 calls)
     vhpsi        :     25.61s CPU     25.84s WALL (   34524 calls)

     PWSCF        :  17m37.06s CPU  17m54.78s WALL


   This run was terminated on:  20:52:48  26Oct2024            

=------------------------------------------------------------------------------=
   JOB DONE.
=------------------------------------------------------------------------------=
