
     Program PWSCF v.6.7MaX starts on 26Oct2024 at 20:52:56 

     This program is part of the open-source Quantum ESPRESSO suite
     for quantum simulation of materials; please cite
         "P. Giannozzi et al., J. Phys.:Condens. Matter 21 395502 (2009);
         "P. Giannozzi et al., J. Phys.:Condens. Matter 29 465901 (2017);
          URL http://www.quantum-espresso.org", 
     in publications or presentations arising from this work. More details at
     http://www.quantum-espresso.org/quote

     Parallel version (MPI), running on     4 processors

     MPI processes distributed on     1 nodes
     R & G space division:  proc/nbgrp/npool/nimage =       4
     Waiting for input...
     Reading input from standard input

     Current dimensions of program PWSCF are:
     Max number of different atomic species (ntypx) = 10
     Max number of k-points (npk) =  40000
     Max angular momentum in pseudopotentials (lmaxx) =  3

     Subspace diagonalization in iterative solution of the eigenvalue problem:
     one sub-group per band group will be used
     scalapack distributed-memory algorithm (size of sub-group:  2*  2 procs)


     Parallelization info
     --------------------
     sticks:   dense  smooth     PW     G-vecs:    dense   smooth      PW
     Min         261     261     74                17069    17069    2544
     Max         262     262     76                17072    17072    2546
     Sum        1045    1045    301                68281    68281   10179



     bravais-lattice index     =            4
     lattice parameter (alat)  =      10.4531  a.u.
     unit-cell volume          =    2440.6662 (a.u.)^3
     number of atoms/cell      =           30
     number of atomic types    =            4
     number of electrons       =       294.00
     number of Kohn-Sham states=          200
     kinetic-energy cutoff     =      35.0000  Ry
     charge density cutoff     =     140.0000  Ry
     scf convergence threshold =      1.0E-07
     mixing beta               =       0.4000
     number of iterations used =            8  plain     mixing
     Exchange-correlation=  SLA  PW   PBX  PBC
                           (   1   4   3   4   0   0   0)

     celldm(1)=  10.453102  celldm(2)=   0.000000  celldm(3)=   2.467415
     celldm(4)=   0.000000  celldm(5)=   0.000000  celldm(6)=   0.000000

     crystal axes: (cart. coord. in units of alat)
               a(1) = (   1.000000   0.000000   0.000000 )  
               a(2) = (  -0.500000   0.866025   0.000000 )  
               a(3) = (   0.000000   0.000000   2.467415 )  

     reciprocal axes: (cart. coord. in units 2 pi/alat)
               b(1) = (  1.000000  0.577350 -0.000000 )  
               b(2) = (  0.000000  1.154701  0.000000 )  
               b(3) = (  0.000000 -0.000000  0.405282 )  


     PseudoPot. # 1 for O  read from file:
     /home/aldair1809/Programas/QE/q-e-qe-7.3/pseudo/o_pbe_v1.2.uspp.F.UPF
     MD5 check sum: 734c27235a0248c51dbae37a1fbe46ec
     Pseudo is Ultrasoft + core correction, Zval =  6.0
     Generated by new atomic code, or converted to UPF format
     Using radial grid of  737 points,  5 beta functions with: 
                l(1) =   0
                l(2) =   0
                l(3) =   1
                l(4) =   1
                l(5) =   2
     Q(r) pseudized with  8 coefficients,  rinner =    0.900   0.900   0.900
                                                       0.900   0.900

     PseudoPot. # 2 for Bi read from file:
     /home/aldair1809/Programas/QE/q-e-qe-7.3/pseudo/bi_pbe_v1.uspp.F.UPF
     MD5 check sum: cceb9f28ec65b6d7ff33140f5b0b1758
     Pseudo is Ultrasoft + core correction, Zval = 15.0
     Generated by new atomic code, or converted to UPF format
     Using radial grid of  899 points,  6 beta functions with: 
                l(1) =   0
                l(2) =   0
                l(3) =   1
                l(4) =   1
                l(5) =   2
                l(6) =   2
     Q(r) pseudized with  6 coefficients,  rinner =    1.000   1.000   1.000
                                                       1.000   1.000

     PseudoPot. # 3 for Fe read from file:
     /home/aldair1809/Programas/QE/q-e-qe-7.3/pseudo/fe_pbe_v1.5.uspp.F.UPF
     MD5 check sum: a130daea23fe5165f5d574ae7f82ed95
     Pseudo is Ultrasoft + core correction, Zval = 16.0
     Generated by new atomic code, or converted to UPF format
     Using radial grid of  861 points,  6 beta functions with: 
                l(1) =   0
                l(2) =   0
                l(3) =   1
                l(4) =   1
                l(5) =   2
                l(6) =   2
     Q(r) pseudized with  8 coefficients,  rinner =    1.000   1.000   1.000
                                                       1.000   1.000

     PseudoPot. # 4 for Fe read from file:
     /home/aldair1809/Programas/QE/q-e-qe-7.3/pseudo/fe_pbe_v1.5.uspp.F.UPF
     MD5 check sum: a130daea23fe5165f5d574ae7f82ed95
     Pseudo is Ultrasoft + core correction, Zval = 16.0
     Generated by new atomic code, or converted to UPF format
     Using radial grid of  861 points,  6 beta functions with: 
                l(1) =   0
                l(2) =   0
                l(3) =   1
                l(4) =   1
                l(5) =   2
                l(6) =   2
     Q(r) pseudized with  8 coefficients,  rinner =    1.000   1.000   1.000
                                                       1.000   1.000

     atomic species   valence    mass     pseudopotential
        O              6.00    15.99940     O ( 1.00)
        Bi            15.00   208.98040     Bi( 1.00)
        Fe1           16.00    55.84500     Fe( 1.00)
        Fe2           16.00    55.84500     Fe( 1.00)

     Starting magnetic structure 
     atomic species   magnetization
        O            0.000
        Bi           0.000
        Fe1         -0.800
        Fe2          0.800


     Simplified LDA+U calculation (l_max = 2) with parameters (eV):
     atomic species    L          U    alpha       J0     beta
        Fe1            2     0.0000  -0.0800   0.0000   0.0000
        Fe2            2     0.0000  -0.0800   0.0000   0.0000



      3 Sym. Ops. (no inversion) found


                                    s                        frac. trans.

      isym =  1     identity                                     

 cryst.   s( 1) = (     1          0          0      )
                  (     0          1          0      )
                  (     0          0          1      )

 cart.    s( 1) = (  1.0000000  0.0000000  0.0000000 )
                  (  0.0000000  1.0000000  0.0000000 )
                  (  0.0000000  0.0000000  1.0000000 )


      isym =  2     120 deg rotation - cryst. axis [0,0,1]       

 cryst.   s( 2) = (     0          1          0      )
                  (    -1         -1          0      )
                  (     0          0          1      )

 cart.    s( 2) = ( -0.5000000 -0.8660254  0.0000000 )
                  (  0.8660254 -0.5000000  0.0000000 )
                  (  0.0000000  0.0000000  1.0000000 )


      isym =  3     120 deg rotation - cryst. axis [0,0,-1]      

 cryst.   s( 3) = (    -1         -1          0      )
                  (     1          0          0      )
                  (     0          0          1      )

 cart.    s( 3) = ( -0.5000000  0.8660254  0.0000000 )
                  ( -0.8660254 -0.5000000  0.0000000 )
                  (  0.0000000  0.0000000  1.0000000 )


     point group C_3 (3)    
     there are  3 classes
     the character table:

       E     C3    C3^2 
A      1.00  1.00  1.00
E      1.00 -0.50 -0.50
E*     1.00 -0.50 -0.50
     imaginary part
A      0.00  0.00  0.00
E      0.00  0.87 -0.87
E*     0.00 -0.87  0.87

     the symmetry operations in each class and the name of the first element:

     E        1
          identity                                               
     C3       2
          120 deg rotation - cryst. axis [0,0,1]                 
     C3^2     3
          120 deg rotation - cryst. axis [0,0,-1]                

   Cartesian axes

     site n.     atom                  positions (alat units)
         1           Fe1 tau(   1) = (   0.0000000   0.0000000   1.9173194  )
         2           Fe1 tau(   2) = (  -0.0000005   0.5773506   2.3408318  )
         3           Fe1 tau(   3) = (   0.5000005   0.2886748   1.4987656  )
         4           Fe2 tau(   4) = (   0.5000005   0.2886748   0.2650306  )
         5           Fe2 tau(   5) = (   0.0000000   0.0000000   0.6836385  )
         6           Fe2 tau(   6) = (  -0.0000005   0.5773506   1.1071829  )
         7           Bi  tau(   7) = (   0.5000005   0.2886748   2.0704508  )
         8           Bi  tau(   8) = (  -0.0000005   0.5773506   1.6683657  )
         9           Bi  tau(   9) = (  -0.0000005   0.5773506   0.4345959  )
        10           Bi  tau(  10) = (   0.0000000   0.0000000   0.0112133  )
        11           Bi  tau(  11) = (   0.0000000   0.0000000   1.2449306  )
        12           Bi  tau(  12) = (   0.5000005   0.2886748   0.8366940  )
        13           O   tau(  13) = (  -0.3015234   0.6617768   2.1713309  )
        14           O   tau(  14) = (   0.0776467   0.2740092   2.1713309  )
        15           O   tau(  15) = (   0.2238783   0.7962639   2.1713309  )
        16           O   tau(  16) = (   0.4195843   0.5622547   1.7587968  )
        17           O   tau(  17) = (   0.3032805   0.0822442   1.7587968  )
        18           O   tau(  18) = (   0.7771337   0.2215274   1.7587968  )
        19           O   tau(  19) = (   0.6967279   0.0822438   0.5250654  )
        20           O   tau(  20) = (   0.5804103   0.5622631   0.5250654  )
        21           O   tau(  21) = (   0.2228602   0.2215194   0.5250654  )
        22           O   tau(  22) = (  -0.0757596   0.8510068   0.1130324  )
        23           O   tau(  23) = (  -0.1991137   0.3749123   0.1130324  )
        24           O   tau(  24) = (   0.2748733   0.5061317   0.1130324  )
        25           O   tau(  25) = (   0.1991050   0.3749017   1.3467955  )
        26           O   tau(  26) = (   0.0757731   0.8510045   1.3467955  )
        27           O   tau(  27) = (  -0.2748781   0.5061446   1.3467955  )
        28           O   tau(  28) = (  -0.0776631   0.2740052   0.9376559  )
        29           O   tau(  29) = (   0.3015366   0.6617637   0.9376559  )
        30           O   tau(  30) = (  -0.2238720   0.7962811   0.9376559  )

   Crystallographic axes

     site n.     atom                  positions (cryst. coord.)
         1           Fe1 tau(   1) = (  0.0000000  0.0000000  0.7770559  )
         2           Fe1 tau(   2) = (  0.3333330  0.6666670  0.9486980  )
         3           Fe1 tau(   3) = (  0.6666670  0.3333330  0.6074234  )
         4           Fe2 tau(   4) = (  0.6666670  0.3333330  0.1074122  )
         5           Fe2 tau(   5) = (  0.0000000  0.0000000  0.2770667  )
         6           Fe2 tau(   6) = (  0.3333330  0.6666670  0.4487218  )
         7           Bi  tau(   7) = (  0.6666670  0.3333330  0.8391174  )
         8           Bi  tau(   8) = (  0.3333330  0.6666670  0.6761593  )
         9           Bi  tau(   9) = (  0.3333330  0.6666670  0.1761341  )
        10           Bi  tau(  10) = (  0.0000000  0.0000000  0.0045446  )
        11           Bi  tau(  11) = (  0.0000000  0.0000000  0.5045485  )
        12           Bi  tau(  12) = (  0.6666670  0.3333330  0.3390974  )
        13           O   tau(  13) = (  0.0805536  0.7641541  0.8800023  )
        14           O   tau(  14) = (  0.2358459  0.3163985  0.8800023  )
        15           O   tau(  15) = (  0.6836015  0.9194464  0.8800023  )
        16           O   tau(  16) = (  0.7442022  0.6492358  0.7128095  )
        17           O   tau(  17) = (  0.3507642  0.0949674  0.7128095  )
        18           O   tau(  18) = (  0.9050326  0.2557978  0.7128095  )
        19           O   tau(  19) = (  0.7442114  0.0949669  0.2127998  )
        20           O   tau(  20) = (  0.9050331  0.6492455  0.2127998  )
        21           O   tau(  21) = (  0.3507545  0.2557886  0.2127998  )
        22           O   tau(  22) = (  0.4155694  0.9826580  0.0458101  )
        23           O   tau(  23) = (  0.0173420  0.4329115  0.0458101  )
        24           O   tau(  24) = (  0.5670885  0.5844306  0.0458101  )
        25           O   tau(  25) = (  0.4155546  0.4328992  0.5458326  )
        26           O   tau(  26) = (  0.5671008  0.9826554  0.5458326  )
        27           O   tau(  27) = (  0.0173446  0.5844454  0.5458326  )
        28           O   tau(  28) = (  0.0805338  0.3163939  0.3800155  )
        29           O   tau(  29) = (  0.6836061  0.7641389  0.3800155  )
        30           O   tau(  30) = (  0.2358611  0.9194662  0.3800155  )

     number of k points=     2  Methfessel-Paxton smearing, width (Ry)=  0.0100
                       cart. coord. in units 2pi/alat
        k(    1) = (   0.0000000   0.0000000   0.0000000), wk =   0.2500000
        k(    2) = (   0.0000000  -0.5773503   0.0000000), wk =   0.7500000

                       cryst. coord.
        k(    1) = (   0.0000000   0.0000000   0.0000000), wk =   0.2500000
        k(    2) = (   0.0000000  -0.5000000   0.0000000), wk =   0.7500000

     Dense  grid:    68281 G-vectors     FFT dimensions: (  40,  40, 100)

     Dynamical RAM for                 wfc:       6.51 MB

     Dynamical RAM for     wfc (w. buffer):      32.55 MB

     Dynamical RAM for             U proj.:       0.98 MB

     Dynamical RAM for  U proj. (w. buff.):       4.88 MB

     Dynamical RAM for           str. fact:       1.04 MB

     Dynamical RAM for           local pot:       0.00 MB

     Dynamical RAM for          nlocal pot:      14.65 MB

     Dynamical RAM for                qrad:       3.80 MB

     Dynamical RAM for          rho,v,vnew:       3.39 MB

     Dynamical RAM for               rhoin:       1.13 MB

     Dynamical RAM for            rho*nmix:       8.34 MB

     Dynamical RAM for           G-vectors:       1.11 MB

     Dynamical RAM for          h,s,v(r/c):       0.46 MB

     Dynamical RAM for          <psi|beta>:       1.37 MB

     Dynamical RAM for      wfcinit/wfcrot:      13.94 MB

     Dynamical RAM for           addusdens:      53.40 MB

     Estimated static dynamical RAM per process >      74.02 MB

     Estimated max dynamical RAM per process >     127.42 MB

     Estimated total dynamical RAM >     509.70 MB

     Atomic positions and unit cell read from directory:
     /home/aldair1809/Documentos/QE/4BFO/hubbard_pbe_mp/lr_-0.08/bifeo3-Uhubbard.save/


     Check: negative core charge=   -0.000081
     Generating pointlists ...
     new r_m :   0.1435 (alat units)  1.5003 (a.u.) for type    1
     new r_m :   0.1728 (alat units)  1.8065 (a.u.) for type    2
     new r_m :   0.1435 (alat units)  1.5003 (a.u.) for type    3
     new r_m :   0.1435 (alat units)  1.5003 (a.u.) for type    4

     The initial density is read from file :
     /home/aldair1809/Documentos/QE/4BFO/hubbard_pbe_mp/lr_-0.08/bifeo3-Uhubbard.save/charge-density


     negative rho (up, down):  1.235E-01 1.235E-01
 --- in v_hubbard ---
Hubbard energy   -0.2171
 -------
     Number of +U iterations with fixed ns =  0
     Starting occupations:
 --- enter write_ns ---
 LDA+U parameters:
alpha( 3) = -0.08000000
alpha( 4) = -0.08000000
atom    1   Tr[ns(na)] (up, down, total) =   1.14843  4.96207  6.11051
   spin  1
    eigenvalues: 
  0.167  0.174  0.174  0.317  0.317
    eigenvectors:
  1.000  0.000  0.000  0.000  0.000
  0.000  0.081  0.306  0.026  0.587
  0.000  0.306  0.081  0.587  0.026
  0.000  0.165  0.448  0.205  0.182
  0.000  0.448  0.165  0.182  0.205
    occupations:
  0.167 -0.000 -0.000 -0.000 -0.000
 -0.000  0.261 -0.000  0.036  0.059
 -0.000 -0.000  0.261  0.059 -0.036
 -0.000  0.036  0.059  0.229  0.000
 -0.000  0.059 -0.036  0.000  0.229
   spin  2
    eigenvalues: 
  0.990  0.990  0.993  0.994  0.994
    eigenvectors:
  0.000  0.000  1.000  0.000  0.000
  0.040  0.302  0.000  0.045  0.613
  0.302  0.040  0.000  0.613  0.045
  0.223  0.434  0.000  0.145  0.198
  0.434  0.223  0.000  0.198  0.145
    occupations:
  0.993 -0.000 -0.000 -0.000 -0.000
 -0.000  0.993 -0.000 -0.001 -0.002
 -0.000 -0.000  0.993 -0.002  0.001
 -0.000 -0.001 -0.002  0.992  0.000
 -0.000 -0.002  0.001  0.000  0.992
atomic mag. moment =  -3.81364
atom    2   Tr[ns(na)] (up, down, total) =   1.25263  4.91386  6.16649
   spin  1
    eigenvalues: 
  0.179  0.193  0.193  0.344  0.344
    eigenvectors:
  1.000  0.000  0.000  0.000  0.000
  0.000  0.191  0.073  0.239  0.497
  0.000  0.073  0.191  0.497  0.239
  0.000  0.103  0.632  0.000  0.264
  0.000  0.632  0.103  0.264  0.000
    occupations:
  0.179 -0.000 -0.000 -0.000 -0.000
 -0.000  0.304 -0.000 -0.054  0.039
 -0.000 -0.000  0.304  0.039  0.054
 -0.000 -0.054  0.039  0.233  0.000
 -0.000  0.039  0.054  0.000  0.233
   spin  2
    eigenvalues: 
  0.969  0.969  0.991  0.992  0.992
    eigenvectors:
  0.000  0.000  1.000  0.000  0.000
  0.478  0.173  0.000  0.299  0.049
  0.173  0.478  0.000  0.049  0.299
  0.004  0.344  0.000  0.044  0.608
  0.344  0.004  0.000  0.608  0.044
    occupations:
  0.991 -0.000 -0.000 -0.000 -0.000
 -0.000  0.977 -0.000  0.007 -0.009
 -0.000 -0.000  0.977 -0.009 -0.007
 -0.000  0.007 -0.009  0.984  0.000
 -0.000 -0.009 -0.007  0.000  0.984
atomic mag. moment =  -3.66122
atom    3   Tr[ns(na)] (up, down, total) =   1.26880  4.91890  6.18770
   spin  1
    eigenvalues: 
  0.198  0.198  0.208  0.332  0.332
    eigenvectors:
  0.000  0.000  1.000  0.000  0.000
  0.362  0.241  0.000  0.294  0.104
  0.241  0.362  0.000  0.104  0.294
  0.024  0.374  0.000  0.088  0.514
  0.374  0.024  0.000  0.514  0.088
    occupations:
  0.208 -0.000 -0.000 -0.000 -0.000
 -0.000  0.251 -0.000 -0.053  0.039
 -0.000 -0.000  0.251  0.039  0.053
 -0.000 -0.053  0.039  0.279  0.000
 -0.000  0.039  0.053  0.000  0.279
   spin  2
    eigenvalues: 
  0.973  0.973  0.990  0.991  0.991
    eigenvectors:
  0.000  0.000  1.000  0.000  0.000
  0.456  0.089  0.000  0.340  0.114
  0.089  0.456  0.000  0.114  0.340
  0.044  0.411  0.000  0.023  0.523
  0.411  0.044  0.000  0.523  0.023
    occupations:
  0.990 -0.000 -0.000 -0.000 -0.000
 -0.000  0.981 -0.000  0.006 -0.007
 -0.000 -0.000  0.981 -0.007 -0.006
 -0.000  0.006 -0.007  0.983  0.000
 -0.000 -0.007 -0.006  0.000  0.983
atomic mag. moment =  -3.65010
atom    4   Tr[ns(na)] (up, down, total) =   4.91906  1.27035  6.18941
   spin  1
    eigenvalues: 
  0.973  0.973  0.990  0.991  0.991
    eigenvectors:
  0.000  0.000  1.000  0.000  0.000
  0.010  0.535  0.000  0.050  0.404
  0.535  0.010  0.000  0.404  0.050
  0.190  0.265  0.000  0.126  0.419
  0.265  0.190  0.000  0.419  0.126
    occupations:
  0.990 -0.000 -0.000 -0.000 -0.000
 -0.000  0.981 -0.000 -0.006 -0.007
 -0.000 -0.000  0.981 -0.007  0.006
 -0.000 -0.006 -0.007  0.983  0.000
 -0.000 -0.007  0.006  0.000  0.983
   spin  2
    eigenvalues: 
  0.199  0.199  0.209  0.332  0.332
    eigenvectors:
  0.000  0.000  1.000  0.000  0.000
  0.001  0.602  0.000  0.001  0.396
  0.602  0.001  0.000  0.396  0.001
  0.157  0.240  0.000  0.182  0.421
  0.240  0.157  0.000  0.421  0.182
    occupations:
  0.209 -0.000 -0.000 -0.000 -0.000
 -0.000  0.252 -0.000  0.053  0.039
 -0.000 -0.000  0.252  0.039 -0.053
 -0.000  0.053  0.039  0.279  0.000
 -0.000  0.039 -0.053  0.000  0.279
atomic mag. moment =   3.64872
atom    5   Tr[ns(na)] (up, down, total) =   4.96210  1.14660  6.10870
   spin  1
    eigenvalues: 
  0.990  0.990  0.993  0.994  0.994
    eigenvectors:
  0.000  0.000  1.000  0.000  0.000
  0.336  0.005  0.000  0.440  0.219
  0.005  0.336  0.000  0.219  0.440
  0.141  0.518  0.000  0.000  0.341
  0.518  0.141  0.000  0.341  0.000
    occupations:
  0.993 -0.000 -0.000 -0.000 -0.000
 -0.000  0.993 -0.000  0.001 -0.002
 -0.000 -0.000  0.993 -0.002 -0.001
 -0.000  0.001 -0.002  0.992  0.000
 -0.000 -0.002 -0.001  0.000  0.992
   spin  2
    eigenvalues: 
  0.166  0.173  0.173  0.317  0.317
    eigenvectors:
  1.000  0.000  0.000  0.000  0.000
  0.000  0.366  0.020  0.587  0.026
  0.000  0.020  0.366  0.026  0.587
  0.000  0.060  0.553  0.043  0.343
  0.000  0.553  0.060  0.343  0.043
    occupations:
  0.166 -0.000 -0.000 -0.000 -0.000
 -0.000  0.261 -0.000 -0.036  0.060
 -0.000 -0.000  0.261  0.060  0.036
 -0.000 -0.036  0.060  0.229  0.000
 -0.000  0.060  0.036  0.000  0.229
atomic mag. moment =   3.81550
atom    6   Tr[ns(na)] (up, down, total) =   4.91400  1.25157  6.16557
   spin  1
    eigenvalues: 
  0.969  0.969  0.991  0.992  0.992
    eigenvectors:
  0.000  0.000  1.000  0.000  0.000
  0.009  0.642  0.000  0.071  0.277
  0.642  0.009  0.000  0.277  0.071
  0.180  0.168  0.000  0.125  0.527
  0.168  0.180  0.000  0.527  0.125
    occupations:
  0.991 -0.000 -0.000 -0.000 -0.000
 -0.000  0.977 -0.000 -0.007 -0.009
 -0.000 -0.000  0.977 -0.009  0.007
 -0.000 -0.007 -0.009  0.984  0.000
 -0.000 -0.009  0.007  0.000  0.984
   spin  2
    eigenvalues: 
  0.179  0.193  0.193  0.344  0.344
    eigenvectors:
  1.000  0.000  0.000  0.000  0.000
  0.000  0.004  0.260  0.005  0.730
  0.000  0.260  0.004  0.730  0.005
  0.000  0.172  0.563  0.114  0.151
  0.000  0.563  0.172  0.151  0.114
    occupations:
  0.179 -0.000 -0.000 -0.000 -0.000
 -0.000  0.304 -0.000  0.054  0.039
 -0.000 -0.000  0.304  0.039 -0.054
 -0.000  0.054  0.039  0.233  0.000
 -0.000  0.039 -0.054  0.000  0.233
atomic mag. moment =   3.66242
N of occupied +U levels =   36.928377
 --- exit write_ns ---
 Atomic wfc used for LDA+U Projector are NOT orthogonalized
     Starting wfcs from file

     total cpu time spent up to now is        6.2 secs

     Self-consistent Calculation

     iteration #  1     ecut=    35.00 Ry     beta= 0.40
     CG style diagonalization
     c_bands:  3 eigenvalues not converged
     c_bands:  1 eigenvalues not converged
     c_bands:  2 eigenvalues not converged
     ethr =  1.00E-09,  avg # of iterations = 22.7
 --- enter write_ns ---
 LDA+U parameters:
alpha( 3) = -0.08000000
alpha( 4) = -0.08000000
atom    1   Tr[ns(na)] (up, down, total) =   1.16484  4.95839  6.12323
   spin  1
    eigenvalues: 
  0.169  0.178  0.178  0.320  0.320
    eigenvectors:
  1.000  0.000  0.000  0.000  0.000
  0.000  0.084  0.301  0.027  0.588
  0.000  0.301  0.084  0.588  0.027
  0.000  0.166  0.450  0.206  0.179
  0.000  0.450  0.166  0.179  0.206
    occupations:
  0.169 -0.000 -0.000 -0.000 -0.000
 -0.000  0.266 -0.000  0.036  0.060
 -0.000 -0.000  0.266  0.060 -0.036
 -0.000  0.036  0.060  0.233  0.000
 -0.000  0.060 -0.036  0.000  0.233
   spin  2
    eigenvalues: 
  0.988  0.988  0.993  0.994  0.994
    eigenvectors:
  0.000  0.000  1.000  0.000  0.000
  0.021  0.370  0.000  0.035  0.573
  0.370  0.021  0.000  0.573  0.035
  0.211  0.398  0.000  0.134  0.258
  0.398  0.211  0.000  0.258  0.134
    occupations:
  0.993 -0.000 -0.000 -0.000 -0.000
 -0.000  0.992 -0.000 -0.002 -0.002
 -0.000 -0.000  0.992 -0.002  0.002
 -0.000 -0.002 -0.002  0.991  0.000
 -0.000 -0.002  0.002  0.000  0.991
atomic mag. moment =  -3.79356
atom    2   Tr[ns(na)] (up, down, total) =   1.28401  4.91111  6.19511
   spin  1
    eigenvalues: 
  0.186  0.200  0.200  0.349  0.349
    eigenvectors:
  1.000  0.000  0.000  0.000  0.000
  0.000  0.184  0.075  0.229  0.513
  0.000  0.075  0.184  0.513  0.229
  0.000  0.105  0.636  0.000  0.258
  0.000  0.636  0.105  0.258  0.000
    occupations:
  0.186 -0.000 -0.000 -0.000 -0.000
 -0.000  0.311 -0.000 -0.053  0.038
 -0.000 -0.000  0.311  0.038  0.053
 -0.000 -0.053  0.038  0.239  0.000
 -0.000  0.038  0.053  0.000  0.239
   spin  2
    eigenvalues: 
  0.968  0.968  0.991  0.992  0.992
    eigenvectors:
  0.000  0.000  1.000  0.000  0.000
  0.477  0.172  0.000  0.299  0.052
  0.172  0.477  0.000  0.052  0.299
  0.005  0.346  0.000  0.043  0.606
  0.346  0.005  0.000  0.606  0.043
    occupations:
  0.991 -0.000 -0.000 -0.000 -0.000
 -0.000  0.976 -0.000  0.007 -0.009
 -0.000 -0.000  0.976 -0.009 -0.007
 -0.000  0.007 -0.009  0.984  0.000
 -0.000 -0.009 -0.007  0.000  0.984
atomic mag. moment =  -3.62710
atom    3   Tr[ns(na)] (up, down, total) =   1.30679  4.91628  6.22307
   spin  1
    eigenvalues: 
  0.207  0.207  0.217  0.338  0.338
    eigenvectors:
  0.000  0.000  1.000  0.000  0.000
  0.359  0.254  0.000  0.283  0.105
  0.254  0.359  0.000  0.105  0.283
  0.023  0.365  0.000  0.092  0.521
  0.365  0.023  0.000  0.521  0.092
    occupations:
  0.217 -0.000 -0.000 -0.000 -0.000
 -0.000  0.258 -0.000 -0.052  0.038
 -0.000 -0.000  0.258  0.038  0.052
 -0.000 -0.052  0.038  0.287  0.000
 -0.000  0.038  0.052  0.000  0.287
   spin  2
    eigenvalues: 
  0.972  0.972  0.990  0.991  0.991
    eigenvectors:
  0.000  0.000  1.000  0.000  0.000
  0.455  0.100  0.000  0.333  0.111
  0.100  0.455  0.000  0.111  0.333
  0.038  0.406  0.000  0.025  0.531
  0.406  0.038  0.000  0.531  0.025
    occupations:
  0.990 -0.000 -0.000 -0.000 -0.000
 -0.000  0.980 -0.000  0.006 -0.007
 -0.000 -0.000  0.980 -0.007 -0.006
 -0.000  0.006 -0.007  0.983  0.000
 -0.000 -0.007 -0.006  0.000  0.983
atomic mag. moment =  -3.60949
atom    4   Tr[ns(na)] (up, down, total) =   4.91581  1.29505  6.21086
   spin  1
    eigenvalues: 
  0.972  0.972  0.990  0.991  0.991
    eigenvectors:
  0.000  0.000  1.000  0.000  0.000
  0.010  0.544  0.000  0.050  0.397
  0.544  0.010  0.000  0.397  0.050
  0.188  0.258  0.000  0.126  0.428
  0.258  0.188  0.000  0.428  0.126
    occupations:
  0.990 -0.000 -0.000 -0.000 -0.000
 -0.000  0.980 -0.000 -0.006 -0.007
 -0.000 -0.000  0.980 -0.007  0.006
 -0.000 -0.006 -0.007  0.982  0.000
 -0.000 -0.007  0.006  0.000  0.982
   spin  2
    eigenvalues: 
  0.204  0.204  0.214  0.336  0.336
    eigenvectors:
  0.000  0.000  1.000  0.000  0.000
  0.001  0.609  0.000  0.001  0.388
  0.609  0.001  0.000  0.388  0.001
  0.156  0.233  0.000  0.183  0.427
  0.233  0.156  0.000  0.427  0.183
    occupations:
  0.214 -0.000 -0.000 -0.000 -0.000
 -0.000  0.256 -0.000  0.052  0.038
 -0.000 -0.000  0.256  0.038 -0.052
 -0.000  0.052  0.038  0.285  0.000
 -0.000  0.038 -0.052  0.000  0.285
atomic mag. moment =   3.62077
atom    5   Tr[ns(na)] (up, down, total) =   4.96002  1.19194  6.15196
   spin  1
    eigenvalues: 
  0.989  0.989  0.993  0.994  0.994
    eigenvectors:
  0.000  0.000  1.000  0.000  0.000
  0.361  0.020  0.000  0.409  0.210
  0.020  0.361  0.000  0.210  0.409
  0.116  0.503  0.000  0.001  0.379
  0.503  0.116  0.000  0.379  0.001
    occupations:
  0.993 -0.000 -0.000 -0.000 -0.000
 -0.000  0.992 -0.000  0.002 -0.002
 -0.000 -0.000  0.992 -0.002 -0.002
 -0.000  0.002 -0.002  0.991  0.000
 -0.000 -0.002 -0.002  0.000  0.991
   spin  2
    eigenvalues: 
  0.182  0.183  0.183  0.322  0.322
    eigenvectors:
  1.000  0.000  0.000  0.000  0.000
  0.000  0.367  0.015  0.603  0.015
  0.000  0.015  0.367  0.015  0.603
  0.000  0.063  0.555  0.050  0.332
  0.000  0.555  0.063  0.332  0.050
    occupations:
  0.182 -0.000 -0.000 -0.000 -0.000
 -0.000  0.269 -0.000 -0.034  0.059
 -0.000 -0.000  0.269  0.059  0.034
 -0.000 -0.034  0.059  0.236  0.000
 -0.000  0.059  0.034  0.000  0.236
atomic mag. moment =   3.76808
atom    6   Tr[ns(na)] (up, down, total) =   4.91117  1.29659  6.20776
   spin  1
    eigenvalues: 
  0.968  0.968  0.991  0.992  0.992
    eigenvectors:
  0.000  0.000  1.000  0.000  0.000
  0.009  0.642  0.000  0.069  0.280
  0.642  0.009  0.000  0.280  0.069
  0.179  0.170  0.000  0.125  0.526
  0.170  0.179  0.000  0.526  0.125
    occupations:
  0.991 -0.000 -0.000 -0.000 -0.000
 -0.000  0.976 -0.000 -0.007 -0.009
 -0.000 -0.000  0.976 -0.009  0.007
 -0.000 -0.007 -0.009  0.984  0.000
 -0.000 -0.009  0.007  0.000  0.984
   spin  2
    eigenvalues: 
  0.187  0.205  0.205  0.350  0.350
    eigenvectors:
  1.000  0.000  0.000  0.000  0.000
  0.000  0.003  0.250  0.008  0.740
  0.000  0.250  0.003  0.740  0.008
  0.000  0.174  0.574  0.106  0.147
  0.000  0.574  0.174  0.147  0.106
    occupations:
  0.187 -0.000 -0.000 -0.000 -0.000
 -0.000  0.313 -0.000  0.052  0.036
 -0.000 -0.000  0.313  0.036 -0.052
 -0.000  0.052  0.036  0.241  0.000
 -0.000  0.036 -0.052  0.000  0.241
atomic mag. moment =   3.61457
N of occupied +U levels =   37.111994
 --- exit write_ns ---

     negative rho (up, down):  1.235E-01 1.235E-01
 --- in v_hubbard ---
Hubbard energy   -0.2176
 -------

     total cpu time spent up to now is      383.0 secs

     total energy              =   -3195.25363500 Ry
     estimated scf accuracy    <       0.00331036 Ry

     total magnetization       =    -0.02 Bohr mag/cell
     absolute magnetization    =    27.16 Bohr mag/cell

     iteration #  2     ecut=    35.00 Ry     beta= 0.40
     CG style diagonalization
     ethr =  1.13E-06,  avg # of iterations =  3.4
 --- enter write_ns ---
 LDA+U parameters:
alpha( 3) = -0.08000000
alpha( 4) = -0.08000000
atom    1   Tr[ns(na)] (up, down, total) =   1.24457  4.96473  6.20930
   spin  1
    eigenvalues: 
  0.192  0.192  0.220  0.321  0.321
    eigenvectors:
  0.000  0.000  1.000  0.000  0.000
  0.099  0.270  0.000  0.033  0.598
  0.270  0.099  0.000  0.598  0.033
  0.167  0.464  0.000  0.210  0.159
  0.464  0.167  0.000  0.159  0.210
    occupations:
  0.220 -0.000 -0.000 -0.000 -0.000
 -0.000  0.273 -0.000  0.029  0.055
 -0.000 -0.000  0.273  0.055 -0.029
 -0.000  0.029  0.055  0.239  0.000
 -0.000  0.055 -0.029  0.000  0.239
   spin  2
    eigenvalues: 
  0.991  0.991  0.993  0.994  0.994
    eigenvectors:
  0.000  0.000  1.000  0.000  0.000
  0.068  0.208  0.000  0.030  0.694
  0.208  0.068  0.000  0.694  0.030
  0.233  0.491  0.000  0.174  0.102
  0.491  0.233  0.000  0.102  0.174
    occupations:
  0.993 -0.000 -0.000 -0.000 -0.000
 -0.000  0.994 -0.000 -0.001 -0.001
 -0.000 -0.000  0.994 -0.001  0.001
 -0.000 -0.001 -0.001  0.992  0.000
 -0.000 -0.001  0.001  0.000  0.992
atomic mag. moment =  -3.72016
atom    2   Tr[ns(na)] (up, down, total) =   1.27092  4.91339  6.18431
   spin  1
    eigenvalues: 
  0.179  0.203  0.203  0.343  0.343
    eigenvectors:
  1.000  0.000  0.000  0.000  0.000
  0.000  0.168  0.075  0.203  0.553
  0.000  0.075  0.168  0.553  0.203
  0.000  0.118  0.638  0.000  0.243
  0.000  0.638  0.118  0.243  0.000
    occupations:
  0.179 -0.000 -0.000 -0.000 -0.000
 -0.000  0.309 -0.000 -0.050  0.032
 -0.000 -0.000  0.309  0.032  0.050
 -0.000 -0.050  0.032  0.237  0.000
 -0.000  0.032  0.050  0.000  0.237
   spin  2
    eigenvalues: 
  0.969  0.969  0.990  0.992  0.992
    eigenvectors:
  0.000  0.000  1.000  0.000  0.000
  0.480  0.173  0.000  0.298  0.049
  0.173  0.480  0.000  0.049  0.298
  0.004  0.343  0.000  0.044  0.609
  0.343  0.004  0.000  0.609  0.044
    occupations:
  0.990 -0.000 -0.000 -0.000 -0.000
 -0.000  0.977 -0.000  0.007 -0.009
 -0.000 -0.000  0.977 -0.009 -0.007
 -0.000  0.007 -0.009  0.984  0.000
 -0.000 -0.009 -0.007  0.000  0.984
atomic mag. moment =  -3.64247
atom    3   Tr[ns(na)] (up, down, total) =   1.25650  4.92175  6.17825
   spin  1
    eigenvalues: 
  0.196  0.196  0.208  0.328  0.328
    eigenvectors:
  0.000  0.000  1.000  0.000  0.000
  0.372  0.244  0.000  0.292  0.092
  0.244  0.372  0.000  0.092  0.292
  0.021  0.363  0.000  0.095  0.521
  0.363  0.021  0.000  0.521  0.095
    occupations:
  0.208 -0.000 -0.000 -0.000 -0.000
 -0.000  0.247 -0.000 -0.051  0.039
 -0.000 -0.000  0.247  0.039  0.051
 -0.000 -0.051  0.039  0.278  0.000
 -0.000  0.039  0.051  0.000  0.278
   spin  2
    eigenvalues: 
  0.975  0.975  0.990  0.991  0.991
    eigenvectors:
  0.000  0.000  1.000  0.000  0.000
  0.450  0.074  0.000  0.351  0.125
  0.074  0.450  0.000  0.125  0.351
  0.053  0.423  0.000  0.019  0.505
  0.423  0.053  0.000  0.505  0.019
    occupations:
  0.990 -0.000 -0.000 -0.000 -0.000
 -0.000  0.983 -0.000  0.005 -0.006
 -0.000 -0.000  0.983 -0.006 -0.005
 -0.000  0.005 -0.006  0.983  0.000
 -0.000 -0.006 -0.005  0.000  0.983
atomic mag. moment =  -3.66524
atom    4   Tr[ns(na)] (up, down, total) =   4.90815  1.26580  6.17395
   spin  1
    eigenvalues: 
  0.968  0.968  0.990  0.991  0.991
    eigenvectors:
  0.000  0.000  1.000  0.000  0.000
  0.005  0.560  0.000  0.039  0.395
  0.560  0.005  0.000  0.395  0.039
  0.180  0.254  0.000  0.127  0.439
  0.254  0.180  0.000  0.439  0.127
    occupations:
  0.990 -0.000 -0.000 -0.000 -0.000
 -0.000  0.978 -0.000 -0.008 -0.008
 -0.000 -0.000  0.978 -0.008  0.008
 -0.000 -0.008 -0.008  0.981  0.000
 -0.000 -0.008  0.008  0.000  0.981
   spin  2
    eigenvalues: 
  0.197  0.197  0.209  0.332  0.332
    eigenvectors:
  0.000  0.000  1.000  0.000  0.000
  0.001  0.594  0.000  0.001  0.404
  0.594  0.001  0.000  0.404  0.001
  0.159  0.247  0.000  0.180  0.414
  0.247  0.159  0.000  0.414  0.180
    occupations:
  0.209 -0.000 -0.000 -0.000 -0.000
 -0.000  0.251 -0.000  0.053  0.040
 -0.000 -0.000  0.251  0.040 -0.053
 -0.000  0.053  0.040  0.277  0.000
 -0.000  0.040 -0.053  0.000  0.277
atomic mag. moment =   3.64235
atom    5   Tr[ns(na)] (up, down, total) =   4.93406  1.10700  6.04107
   spin  1
    eigenvalues: 
  0.977  0.977  0.992  0.994  0.994
    eigenvectors:
  0.000  0.000  1.000  0.000  0.000
  0.372  0.136  0.000  0.308  0.185
  0.136  0.372  0.000  0.185  0.308
  0.049  0.443  0.000  0.021  0.487
  0.443  0.049  0.000  0.487  0.021
    occupations:
  0.992 -0.000 -0.000 -0.000 -0.000
 -0.000  0.985 -0.000  0.006 -0.005
 -0.000 -0.000  0.985 -0.005 -0.006
 -0.000  0.006 -0.005  0.986  0.000
 -0.000 -0.005 -0.006  0.000  0.986
   spin  2
    eigenvalues: 
  0.156  0.167  0.167  0.308  0.308
    eigenvectors:
  1.000  0.000  0.000  0.000  0.000
  0.000  0.364  0.026  0.573  0.037
  0.000  0.026  0.364  0.037  0.573
  0.000  0.056  0.554  0.039  0.351
  0.000  0.554  0.056  0.351  0.039
    occupations:
  0.156 -0.000 -0.000 -0.000 -0.000
 -0.000  0.253 -0.000 -0.037  0.058
 -0.000 -0.000  0.253  0.058  0.037
 -0.000 -0.037  0.058  0.222  0.000
 -0.000  0.058  0.037  0.000  0.222
atomic mag. moment =   3.82706
atom    6   Tr[ns(na)] (up, down, total) =   4.89065  1.20241  6.09306
   spin  1
    eigenvalues: 
  0.959  0.959  0.990  0.992  0.992
    eigenvectors:
  0.000  0.000  1.000  0.000  0.000
  0.006  0.618  0.000  0.054  0.322
  0.618  0.006  0.000  0.322  0.054
  0.176  0.199  0.000  0.126  0.498
  0.199  0.176  0.000  0.498  0.126
    occupations:
  0.990 -0.000 -0.000 -0.000 -0.000
 -0.000  0.971 -0.000 -0.010 -0.012
 -0.000 -0.000  0.971 -0.012  0.010
 -0.000 -0.010 -0.012  0.979  0.000
 -0.000 -0.012  0.010  0.000  0.979
   spin  2
    eigenvalues: 
  0.170  0.181  0.181  0.335  0.335
    eigenvectors:
  1.000  0.000  0.000  0.000  0.000
  0.000  0.008  0.268  0.002  0.721
  0.000  0.268  0.008  0.721  0.002
  0.000  0.170  0.554  0.124  0.152
  0.000  0.554  0.170  0.152  0.124
    occupations:
  0.170 -0.000 -0.000 -0.000 -0.000
 -0.000  0.292 -0.000  0.054  0.043
 -0.000 -0.000  0.292  0.043 -0.054
 -0.000  0.054  0.043  0.224  0.000
 -0.000  0.043 -0.054  0.000  0.224
atomic mag. moment =   3.68824
N of occupied +U levels =   36.879939
 --- exit write_ns ---

     negative rho (up, down):  1.235E-01 1.235E-01
 --- in v_hubbard ---
Hubbard energy   -0.2175
 -------

     total cpu time spent up to now is      442.5 secs

     total energy              =   -3195.25178252 Ry
     estimated scf accuracy    <       0.03995850 Ry

     total magnetization       =    -0.03 Bohr mag/cell
     absolute magnetization    =    27.11 Bohr mag/cell

     iteration #  3     ecut=    35.00 Ry     beta= 0.40
     CG style diagonalization
     ethr =  1.13E-06,  avg # of iterations =  3.3
 --- enter write_ns ---
 LDA+U parameters:
alpha( 3) = -0.08000000
alpha( 4) = -0.08000000
atom    1   Tr[ns(na)] (up, down, total) =   1.12095  4.94169  6.06264
   spin  1
    eigenvalues: 
  0.156  0.170  0.170  0.312  0.312
    eigenvectors:
  1.000  0.000  0.000  0.000  0.000
  0.000  0.076  0.316  0.024  0.584
  0.000  0.316  0.076  0.584  0.024
  0.000  0.164  0.443  0.203  0.189
  0.000  0.443  0.164  0.189  0.203
    occupations:
  0.156 -0.000 -0.000 -0.000 -0.000
 -0.000  0.256 -0.000  0.037  0.058
 -0.000 -0.000  0.256  0.058 -0.037
 -0.000  0.037  0.058  0.226  0.000
 -0.000  0.058 -0.037  0.000  0.226
   spin  2
    eigenvalues: 
  0.981  0.981  0.992  0.994  0.994
    eigenvectors:
  0.000  0.000  1.000  0.000  0.000
  0.004  0.480  0.000  0.020  0.495
  0.480  0.004  0.000  0.495  0.020
  0.184  0.332  0.000  0.125  0.359
  0.332  0.184  0.000  0.359  0.125
    occupations:
  0.992 -0.000 -0.000 -0.000 -0.000
 -0.000  0.988 -0.000 -0.005 -0.004
 -0.000 -0.000  0.988 -0.004  0.005
 -0.000 -0.005 -0.004  0.987  0.000
 -0.000 -0.004  0.005  0.000  0.987
atomic mag. moment =  -3.82073
atom    2   Tr[ns(na)] (up, down, total) =   1.22131  4.89501  6.11632
   spin  1
    eigenvalues: 
  0.174  0.185  0.185  0.339  0.339
    eigenvectors:
  1.000  0.000  0.000  0.000  0.000
  0.000  0.209  0.068  0.264  0.458
  0.000  0.068  0.209  0.458  0.264
  0.000  0.095  0.627  0.000  0.278
  0.000  0.627  0.095  0.278  0.000
    occupations:
  0.174 -0.000 -0.000 -0.000 -0.000
 -0.000  0.296 -0.000 -0.053  0.043
 -0.000 -0.000  0.296  0.043  0.053
 -0.000 -0.053  0.043  0.228  0.000
 -0.000  0.043  0.053  0.000  0.228
   spin  2
    eigenvalues: 
  0.960  0.960  0.990  0.992  0.992
    eigenvectors:
  0.000  0.000  1.000  0.000  0.000
  0.463  0.175  0.000  0.298  0.065
  0.175  0.463  0.000  0.065  0.298
  0.007  0.355  0.000  0.041  0.596
  0.355  0.007  0.000  0.596  0.041
    occupations:
  0.990 -0.000 -0.000 -0.000 -0.000
 -0.000  0.972 -0.000  0.010 -0.012
 -0.000 -0.000  0.972 -0.012 -0.010
 -0.000  0.010 -0.012  0.980  0.000
 -0.000 -0.012 -0.010  0.000  0.980
atomic mag. moment =  -3.67369
atom    3   Tr[ns(na)] (up, down, total) =   1.24248  4.90338  6.14586
   spin  1
    eigenvalues: 
  0.192  0.192  0.204  0.328  0.328
    eigenvectors:
  0.000  0.000  1.000  0.000  0.000
  0.366  0.216  0.000  0.314  0.105
  0.216  0.366  0.000  0.105  0.314
  0.026  0.392  0.000  0.082  0.500
  0.392  0.026  0.000  0.500  0.082
    occupations:
  0.204 -0.000 -0.000 -0.000 -0.000
 -0.000  0.249 -0.000 -0.053  0.041
 -0.000 -0.000  0.249  0.041  0.053
 -0.000 -0.053  0.041  0.271  0.000
 -0.000  0.041  0.053  0.000  0.271
   spin  2
    eigenvalues: 
  0.966  0.966  0.990  0.991  0.991
    eigenvectors:
  0.000  0.000  1.000  0.000  0.000
  0.447  0.123  0.000  0.320  0.110
  0.123  0.447  0.000  0.110  0.320
  0.031  0.399  0.000  0.028  0.542
  0.399  0.031  0.000  0.542  0.028
    occupations:
  0.990 -0.000 -0.000 -0.000 -0.000
 -0.000  0.977 -0.000  0.008 -0.009
 -0.000 -0.000  0.977 -0.009 -0.008
 -0.000  0.008 -0.009  0.980  0.000
 -0.000 -0.009 -0.008  0.000  0.980
atomic mag. moment =  -3.66090
atom    4   Tr[ns(na)] (up, down, total) =   4.92438  1.30537  6.22974
   spin  1
    eigenvalues: 
  0.976  0.976  0.990  0.991  0.991
    eigenvectors:
  0.000  0.000  1.000  0.000  0.000
  0.011  0.518  0.000  0.050  0.421
  0.518  0.011  0.000  0.421  0.050
  0.192  0.279  0.000  0.126  0.403
  0.279  0.192  0.000  0.403  0.126
    occupations:
  0.990 -0.000 -0.000 -0.000 -0.000
 -0.000  0.983 -0.000 -0.005 -0.006
 -0.000 -0.000  0.983 -0.006  0.005
 -0.000 -0.005 -0.006  0.984  0.000
 -0.000 -0.006  0.005  0.000  0.984
   spin  2
    eigenvalues: 
  0.208  0.208  0.217  0.337  0.337
    eigenvectors:
  0.000  0.000  1.000  0.000  0.000
  0.004  0.633  0.000  0.001  0.362
  0.633  0.004  0.000  0.362  0.001
  0.149  0.214  0.000  0.184  0.453
  0.214  0.149  0.000  0.453  0.184
    occupations:
  0.217 -0.000 -0.000 -0.000 -0.000
 -0.000  0.254 -0.000  0.051  0.036
 -0.000 -0.000  0.254  0.036 -0.051
 -0.000  0.051  0.036  0.290  0.000
 -0.000  0.036 -0.051  0.000  0.290
atomic mag. moment =   3.61901
atom    5   Tr[ns(na)] (up, down, total) =   4.96433  1.20088  6.16521
   spin  1
    eigenvalues: 
  0.991  0.991  0.993  0.994  0.994
    eigenvectors:
  0.000  0.000  1.000  0.000  0.000
  0.257  0.002  0.000  0.461  0.279
  0.002  0.257  0.000  0.279  0.461
  0.182  0.558  0.000  0.013  0.246
  0.558  0.182  0.000  0.246  0.013
    occupations:
  0.993 -0.000 -0.000 -0.000 -0.000
 -0.000  0.994 -0.000  0.001 -0.001
 -0.000 -0.000  0.994 -0.001 -0.001
 -0.000  0.001 -0.001  0.992  0.000
 -0.000 -0.001 -0.001  0.000  0.992
   spin  2
    eigenvalues: 
  0.184  0.184  0.197  0.318  0.318
    eigenvectors:
  0.000  0.000  1.000  0.000  0.000
  0.360  0.011  0.000  0.621  0.009
  0.011  0.360  0.000  0.009  0.621
  0.067  0.562  0.000  0.052  0.318
  0.562  0.067  0.000  0.318  0.052
    occupations:
  0.197 -0.000 -0.000 -0.000 -0.000
 -0.000  0.268 -0.000 -0.031  0.057
 -0.000 -0.000  0.268  0.057  0.031
 -0.000 -0.031  0.057  0.233  0.000
 -0.000  0.057  0.031  0.000  0.233
atomic mag. moment =   3.76346
atom    6   Tr[ns(na)] (up, down, total) =   4.91902  1.29623  6.21525
   spin  1
    eigenvalues: 
  0.972  0.972  0.991  0.992  0.992
    eigenvectors:
  0.000  0.000  1.000  0.000  0.000
  0.010  0.644  0.000  0.073  0.273
  0.644  0.010  0.000  0.273  0.073
  0.180  0.166  0.000  0.124  0.529
  0.166  0.180  0.000  0.529  0.124
    occupations:
  0.991 -0.000 -0.000 -0.000 -0.000
 -0.000  0.979 -0.000 -0.006 -0.008
 -0.000 -0.000  0.979 -0.008  0.006
 -0.000 -0.006 -0.008  0.985  0.000
 -0.000 -0.008  0.006  0.000  0.985
   spin  2
    eigenvalues: 
  0.184  0.208  0.208  0.348  0.348
    eigenvectors:
  1.000  0.000  0.000  0.000  0.000
  0.000  0.000  0.235  0.014  0.751
  0.000  0.235  0.000  0.751  0.014
  0.000  0.177  0.588  0.092  0.143
  0.000  0.588  0.177  0.143  0.092
    occupations:
  0.184 -0.000 -0.000 -0.000 -0.000
 -0.000  0.315 -0.000  0.051  0.030
 -0.000 -0.000  0.315  0.030 -0.051
 -0.000  0.051  0.030  0.241  0.000
 -0.000  0.030 -0.051  0.000  0.241
atomic mag. moment =   3.62279
N of occupied +U levels =   36.935021
 --- exit write_ns ---

     negative rho (up, down):  1.235E-01 1.235E-01
 --- in v_hubbard ---
Hubbard energy   -0.2175
 -------

     total cpu time spent up to now is      498.9 secs

     total energy              =   -3195.25374333 Ry
     estimated scf accuracy    <       0.02983874 Ry

     total magnetization       =     0.00 Bohr mag/cell
     absolute magnetization    =    27.14 Bohr mag/cell

     iteration #  4     ecut=    35.00 Ry     beta= 0.40
     CG style diagonalization
     ethr =  1.13E-06,  avg # of iterations =  3.0
 --- enter write_ns ---
 LDA+U parameters:
alpha( 3) = -0.08000000
alpha( 4) = -0.08000000
atom    1   Tr[ns(na)] (up, down, total) =   1.14154  4.95981  6.10135
   spin  1
    eigenvalues: 
  0.165  0.173  0.173  0.315  0.315
    eigenvectors:
  1.000  0.000  0.000  0.000  0.000
  0.000  0.082  0.304  0.026  0.588
  0.000  0.304  0.082  0.588  0.026
  0.000  0.166  0.448  0.206  0.180
  0.000  0.448  0.166  0.180  0.206
    occupations:
  0.165 -0.000 -0.000 -0.000 -0.000
 -0.000  0.260 -0.000  0.036  0.059
 -0.000 -0.000  0.260  0.059 -0.036
 -0.000  0.036  0.059  0.228  0.000
 -0.000  0.059 -0.036  0.000  0.228
   spin  2
    eigenvalues: 
  0.989  0.989  0.993  0.994  0.994
    eigenvectors:
  0.000  0.000  1.000  0.000  0.000
  0.035  0.318  0.000  0.043  0.604
  0.318  0.035  0.000  0.604  0.043
  0.220  0.426  0.000  0.141  0.212
  0.426  0.220  0.000  0.212  0.141
    occupations:
  0.993 -0.000 -0.000 -0.000 -0.000
 -0.000  0.992 -0.000 -0.001 -0.002
 -0.000 -0.000  0.992 -0.002  0.001
 -0.000 -0.001 -0.002  0.991  0.000
 -0.000 -0.002  0.001  0.000  0.991
atomic mag. moment =  -3.81826
atom    2   Tr[ns(na)] (up, down, total) =   1.27866  4.91403  6.19268
   spin  1
    eigenvalues: 
  0.184  0.199  0.199  0.348  0.348
    eigenvectors:
  1.000  0.000  0.000  0.000  0.000
  0.000  0.178  0.077  0.222  0.524
  0.000  0.077  0.178  0.524  0.222
  0.000  0.107  0.638  0.000  0.254
  0.000  0.638  0.107  0.254  0.000
    occupations:
  0.184 -0.000 -0.000 -0.000 -0.000
 -0.000  0.310 -0.000 -0.053  0.037
 -0.000 -0.000  0.310  0.037  0.053
 -0.000 -0.053  0.037  0.237  0.000
 -0.000  0.037  0.053  0.000  0.237
   spin  2
    eigenvalues: 
  0.969  0.969  0.991  0.992  0.992
    eigenvectors:
  0.000  0.000  1.000  0.000  0.000
  0.479  0.173  0.000  0.299  0.050
  0.173  0.479  0.000  0.050  0.299
  0.004  0.344  0.000  0.044  0.608
  0.344  0.004  0.000  0.608  0.044
    occupations:
  0.991 -0.000 -0.000 -0.000 -0.000
 -0.000  0.977 -0.000  0.007 -0.009
 -0.000 -0.000  0.977 -0.009 -0.007
 -0.000  0.007 -0.009  0.984  0.000
 -0.000 -0.009 -0.007  0.000  0.984
atomic mag. moment =  -3.63537
atom    3   Tr[ns(na)] (up, down, total) =   1.29732  4.91808  6.21540
   spin  1
    eigenvalues: 
  0.205  0.205  0.214  0.337  0.337
    eigenvectors:
  0.000  0.000  1.000  0.000  0.000
  0.355  0.260  0.000  0.278  0.106
  0.260  0.355  0.000  0.106  0.278
  0.022  0.362  0.000  0.092  0.523
  0.362  0.022  0.000  0.523  0.092
    occupations:
  0.214 -0.000 -0.000 -0.000 -0.000
 -0.000  0.256 -0.000 -0.052  0.037
 -0.000 -0.000  0.256  0.037  0.052
 -0.000 -0.052  0.037  0.286  0.000
 -0.000  0.037  0.052  0.000  0.286
   spin  2
    eigenvalues: 
  0.973  0.973  0.990  0.991  0.991
    eigenvectors:
  0.000  0.000  1.000  0.000  0.000
  0.457  0.092  0.000  0.338  0.113
  0.092  0.457  0.000  0.113  0.338
  0.042  0.409  0.000  0.023  0.526
  0.409  0.042  0.000  0.526  0.023
    occupations:
  0.990 -0.000 -0.000 -0.000 -0.000
 -0.000  0.981 -0.000  0.006 -0.007
 -0.000 -0.000  0.981 -0.007 -0.006
 -0.000  0.006 -0.007  0.983  0.000
 -0.000 -0.007 -0.006  0.000  0.983
atomic mag. moment =  -3.62076
atom    4   Tr[ns(na)] (up, down, total) =   4.91312  1.26896  6.18208
   spin  1
    eigenvalues: 
  0.971  0.971  0.990  0.991  0.991
    eigenvectors:
  0.000  0.000  1.000  0.000  0.000
  0.010  0.547  0.000  0.051  0.392
  0.547  0.010  0.000  0.392  0.051
  0.188  0.255  0.000  0.126  0.431
  0.255  0.188  0.000  0.431  0.126
    occupations:
  0.990 -0.000 -0.000 -0.000 -0.000
 -0.000  0.980 -0.000 -0.007 -0.007
 -0.000 -0.000  0.980 -0.007  0.007
 -0.000 -0.007 -0.007  0.982  0.000
 -0.000 -0.007  0.007  0.000  0.982
   spin  2
    eigenvalues: 
  0.198  0.198  0.208  0.332  0.332
    eigenvectors:
  0.000  0.000  1.000  0.000  0.000
  0.001  0.602  0.000  0.001  0.396
  0.602  0.001  0.000  0.396  0.001
  0.157  0.240  0.000  0.183  0.420
  0.240  0.157  0.000  0.420  0.183
    occupations:
  0.208 -0.000 -0.000 -0.000 -0.000
 -0.000  0.251 -0.000  0.052  0.039
 -0.000 -0.000  0.251  0.039 -0.052
 -0.000  0.052  0.039  0.279  0.000
 -0.000  0.039 -0.052  0.000  0.279
atomic mag. moment =   3.64417
atom    5   Tr[ns(na)] (up, down, total) =   4.95865  1.15277  6.11141
   spin  1
    eigenvalues: 
  0.989  0.989  0.993  0.994  0.994
    eigenvectors:
  0.000  0.000  1.000  0.000  0.000
  0.363  0.017  0.000  0.414  0.205
  0.017  0.363  0.000  0.205  0.414
  0.118  0.501  0.000  0.001  0.380
  0.501  0.118  0.000  0.380  0.001
    occupations:
  0.993 -0.000 -0.000 -0.000 -0.000
 -0.000  0.992 -0.000  0.002 -0.002
 -0.000 -0.000  0.992 -0.002 -0.002
 -0.000  0.002 -0.002  0.991  0.000
 -0.000 -0.002 -0.002  0.000  0.991
   spin  2
    eigenvalues: 
  0.169  0.175  0.175  0.317  0.317
    eigenvectors:
  1.000  0.000  0.000  0.000  0.000
  0.000  0.367  0.020  0.589  0.024
  0.000  0.020  0.367  0.024  0.589
  0.000  0.060  0.553  0.045  0.342
  0.000  0.553  0.060  0.342  0.045
    occupations:
  0.169 -0.000 -0.000 -0.000 -0.000
 -0.000  0.262 -0.000 -0.036  0.059
 -0.000 -0.000  0.262  0.059  0.036
 -0.000 -0.036  0.059  0.230  0.000
 -0.000  0.059  0.036  0.000  0.230
atomic mag. moment =   3.80588
atom    6   Tr[ns(na)] (up, down, total) =   4.90874  1.26305  6.17179
   spin  1
    eigenvalues: 
  0.967  0.967  0.991  0.992  0.992
    eigenvectors:
  0.000  0.000  1.000  0.000  0.000
  0.009  0.642  0.000  0.069  0.279
  0.642  0.009  0.000  0.279  0.069
  0.179  0.170  0.000  0.125  0.526
  0.170  0.179  0.000  0.526  0.125
    occupations:
  0.991 -0.000 -0.000 -0.000 -0.000
 -0.000  0.976 -0.000 -0.007 -0.010
 -0.000 -0.000  0.976 -0.010  0.007
 -0.000 -0.007 -0.010  0.983  0.000
 -0.000 -0.010  0.007  0.000  0.983
   spin  2
    eigenvalues: 
  0.181  0.196  0.196  0.345  0.345
    eigenvectors:
  1.000  0.000  0.000  0.000  0.000
  0.000  0.004  0.257  0.006  0.733
  0.000  0.257  0.004  0.733  0.006
  0.000  0.172  0.567  0.111  0.150
  0.000  0.567  0.172  0.150  0.111
    occupations:
  0.181 -0.000 -0.000 -0.000 -0.000
 -0.000  0.306 -0.000  0.053  0.038
 -0.000 -0.000  0.306  0.038 -0.053
 -0.000  0.053  0.038  0.235  0.000
 -0.000  0.038 -0.053  0.000  0.235
atomic mag. moment =   3.64569
N of occupied +U levels =   36.974716
 --- exit write_ns ---

     negative rho (up, down):  1.235E-01 1.235E-01
 --- in v_hubbard ---
Hubbard energy   -0.2175
 -------

     total cpu time spent up to now is      552.5 secs

     total energy              =   -3195.25489404 Ry
     estimated scf accuracy    <       0.00148979 Ry

     total magnetization       =    -0.01 Bohr mag/cell
     absolute magnetization    =    27.23 Bohr mag/cell

     iteration #  5     ecut=    35.00 Ry     beta= 0.40
     CG style diagonalization
     ethr =  5.07E-07,  avg # of iterations =  3.0
 --- enter write_ns ---
 LDA+U parameters:
alpha( 3) = -0.08000000
alpha( 4) = -0.08000000
atom    1   Tr[ns(na)] (up, down, total) =   1.16226  4.95954  6.12180
   spin  1
    eigenvalues: 
  0.171  0.177  0.177  0.319  0.319
    eigenvectors:
  1.000  0.000  0.000  0.000  0.000
  0.000  0.083  0.302  0.027  0.588
  0.000  0.302  0.083  0.588  0.027
  0.000  0.166  0.449  0.206  0.180
  0.000  0.449  0.166  0.180  0.206
    occupations:
  0.171 -0.000 -0.000 -0.000 -0.000
 -0.000  0.264 -0.000  0.036  0.059
 -0.000 -0.000  0.264  0.059 -0.036
 -0.000  0.036  0.059  0.231  0.000
 -0.000  0.059 -0.036  0.000  0.231
   spin  2
    eigenvalues: 
  0.989  0.989  0.993  0.994  0.994
    eigenvectors:
  0.000  0.000  1.000  0.000  0.000
  0.029  0.342  0.000  0.040  0.588
  0.342  0.029  0.000  0.588  0.040
  0.217  0.412  0.000  0.138  0.234
  0.412  0.217  0.000  0.234  0.138
    occupations:
  0.993 -0.000 -0.000 -0.000 -0.000
 -0.000  0.992 -0.000 -0.002 -0.002
 -0.000 -0.000  0.992 -0.002  0.002
 -0.000 -0.002 -0.002  0.991  0.000
 -0.000 -0.002  0.002  0.000  0.991
atomic mag. moment =  -3.79728
atom    2   Tr[ns(na)] (up, down, total) =   1.26653  4.90979  6.17632
   spin  1
    eigenvalues: 
  0.182  0.197  0.197  0.346  0.346
    eigenvectors:
  1.000  0.000  0.000  0.000  0.000
  0.000  0.185  0.075  0.229  0.511
  0.000  0.075  0.185  0.511  0.229
  0.000  0.105  0.635  0.000  0.260
  0.000  0.635  0.105  0.260  0.000
    occupations:
  0.182 -0.000 -0.000 -0.000 -0.000
 -0.000  0.307 -0.000 -0.053  0.038
 -0.000 -0.000  0.307  0.038  0.053
 -0.000 -0.053  0.038  0.236  0.000
 -0.000  0.038  0.053  0.000  0.236
   spin  2
    eigenvalues: 
  0.967  0.967  0.991  0.992  0.992
    eigenvectors:
  0.000  0.000  1.000  0.000  0.000
  0.479  0.171  0.000  0.299  0.051
  0.171  0.479  0.000  0.051  0.299
  0.005  0.345  0.000  0.044  0.607
  0.345  0.005  0.000  0.607  0.044
    occupations:
  0.991 -0.000 -0.000 -0.000 -0.000
 -0.000  0.976 -0.000  0.007 -0.009
 -0.000 -0.000  0.976 -0.009 -0.007
 -0.000  0.007 -0.009  0.984  0.000
 -0.000 -0.009 -0.007  0.000  0.984
atomic mag. moment =  -3.64326
atom    3   Tr[ns(na)] (up, down, total) =   1.28440  4.91569  6.20009
   spin  1
    eigenvalues: 
  0.202  0.202  0.212  0.334  0.334
    eigenvectors:
  0.000  0.000  1.000  0.000  0.000
  0.360  0.251  0.000  0.286  0.104
  0.251  0.360  0.000  0.104  0.286
  0.023  0.367  0.000  0.091  0.519
  0.367  0.023  0.000  0.519  0.091
    occupations:
  0.212 -0.000 -0.000 -0.000 -0.000
 -0.000  0.253 -0.000 -0.052  0.038
 -0.000 -0.000  0.253  0.038  0.052
 -0.000 -0.052  0.038  0.283  0.000
 -0.000  0.038  0.052  0.000  0.283
   spin  2
    eigenvalues: 
  0.972  0.972  0.990  0.991  0.991
    eigenvectors:
  0.000  0.000  1.000  0.000  0.000
  0.459  0.092  0.000  0.337  0.112
  0.092  0.459  0.000  0.112  0.337
  0.041  0.408  0.000  0.024  0.527
  0.408  0.041  0.000  0.527  0.024
    occupations:
  0.990 -0.000 -0.000 -0.000 -0.000
 -0.000  0.980 -0.000  0.006 -0.007
 -0.000 -0.000  0.980 -0.007 -0.006
 -0.000  0.006 -0.007  0.982  0.000
 -0.000 -0.007 -0.006  0.000  0.982
atomic mag. moment =  -3.63129
atom    4   Tr[ns(na)] (up, down, total) =   4.91650  1.28888  6.20538
   spin  1
    eigenvalues: 
  0.972  0.972  0.990  0.991  0.991
    eigenvectors:
  0.000  0.000  1.000  0.000  0.000
  0.010  0.540  0.000  0.050  0.400
  0.540  0.010  0.000  0.400  0.050
  0.189  0.262  0.000  0.126  0.424
  0.262  0.189  0.000  0.424  0.126
    occupations:
  0.990 -0.000 -0.000 -0.000 -0.000
 -0.000  0.981 -0.000 -0.006 -0.007
 -0.000 -0.000  0.981 -0.007  0.006
 -0.000 -0.006 -0.007  0.983  0.000
 -0.000 -0.007  0.006  0.000  0.983
   spin  2
    eigenvalues: 
  0.203  0.203  0.213  0.335  0.335
    eigenvectors:
  0.000  0.000  1.000  0.000  0.000
  0.002  0.610  0.000  0.001  0.387
  0.610  0.002  0.000  0.387  0.001
  0.155  0.234  0.000  0.182  0.429
  0.234  0.155  0.000  0.429  0.182
    occupations:
  0.213 -0.000 -0.000 -0.000 -0.000
 -0.000  0.254 -0.000  0.052  0.038
 -0.000 -0.000  0.254  0.038 -0.052
 -0.000  0.052  0.038  0.284  0.000
 -0.000  0.038 -0.052  0.000  0.284
atomic mag. moment =   3.62763
atom    5   Tr[ns(na)] (up, down, total) =   4.95948  1.15859  6.11807
   spin  1
    eigenvalues: 
  0.989  0.989  0.993  0.994  0.994
    eigenvectors:
  0.000  0.000  1.000  0.000  0.000
  0.356  0.015  0.000  0.417  0.211
  0.015  0.356  0.000  0.211  0.417
  0.122  0.506  0.000  0.001  0.371
  0.506  0.122  0.000  0.371  0.001
    occupations:
  0.993 -0.000 -0.000 -0.000 -0.000
 -0.000  0.992 -0.000  0.002 -0.002
 -0.000 -0.000  0.992 -0.002 -0.002
 -0.000  0.002 -0.002  0.991  0.000
 -0.000 -0.002 -0.002  0.000  0.991
   spin  2
    eigenvalues: 
  0.170  0.176  0.176  0.318  0.318
    eigenvectors:
  1.000  0.000  0.000  0.000  0.000
  0.000  0.367  0.019  0.592  0.022
  0.000  0.019  0.367  0.022  0.592
  0.000  0.060  0.554  0.046  0.340
  0.000  0.554  0.060  0.340  0.046
    occupations:
  0.170 -0.000 -0.000 -0.000 -0.000
 -0.000  0.263 -0.000 -0.036  0.059
 -0.000 -0.000  0.263  0.059  0.036
 -0.000 -0.036  0.059  0.231  0.000
 -0.000  0.059  0.036  0.000  0.231
atomic mag. moment =   3.80089
atom    6   Tr[ns(na)] (up, down, total) =   4.91059  1.26996  6.18054
   spin  1
    eigenvalues: 
  0.968  0.968  0.991  0.992  0.992
    eigenvectors:
  0.000  0.000  1.000  0.000  0.000
  0.009  0.641  0.000  0.070  0.280
  0.641  0.009  0.000  0.280  0.070
  0.180  0.170  0.000  0.125  0.525
  0.170  0.180  0.000  0.525  0.125
    occupations:
  0.991 -0.000 -0.000 -0.000 -0.000
 -0.000  0.976 -0.000 -0.007 -0.009
 -0.000 -0.000  0.976 -0.009  0.007
 -0.000 -0.007 -0.009  0.984  0.000
 -0.000 -0.009  0.007  0.000  0.984
   spin  2
    eigenvalues: 
  0.182  0.198  0.198  0.346  0.346
    eigenvectors:
  1.000  0.000  0.000  0.000  0.000
  0.000  0.003  0.256  0.007  0.735
  0.000  0.256  0.003  0.735  0.007
  0.000  0.172  0.569  0.110  0.149
  0.000  0.569  0.172  0.149  0.110
    occupations:
  0.182 -0.000 -0.000 -0.000 -0.000
 -0.000  0.308 -0.000  0.053  0.038
 -0.000 -0.000  0.308  0.038 -0.053
 -0.000  0.053  0.038  0.236  0.000
 -0.000  0.038 -0.053  0.000  0.236
atomic mag. moment =   3.64063
N of occupied +U levels =   37.002213
 --- exit write_ns ---

     negative rho (up, down):  1.235E-01 1.235E-01
 --- in v_hubbard ---
Hubbard energy   -0.2175
 -------

     total cpu time spent up to now is      611.8 secs

     total energy              =   -3195.25501687 Ry
     estimated scf accuracy    <       0.00006219 Ry

     total magnetization       =     0.00 Bohr mag/cell
     absolute magnetization    =    27.22 Bohr mag/cell

     iteration #  6     ecut=    35.00 Ry     beta= 0.40
     CG style diagonalization
     ethr =  2.12E-08,  avg # of iterations =  3.3
 --- enter write_ns ---
 LDA+U parameters:
alpha( 3) = -0.08000000
alpha( 4) = -0.08000000
atom    1   Tr[ns(na)] (up, down, total) =   1.16249  4.95939  6.12188
   spin  1
    eigenvalues: 
  0.171  0.177  0.177  0.319  0.319
    eigenvectors:
  1.000  0.000  0.000  0.000  0.000
  0.000  0.083  0.302  0.027  0.588
  0.000  0.302  0.083  0.588  0.027
  0.000  0.166  0.449  0.206  0.179
  0.000  0.449  0.166  0.179  0.206
    occupations:
  0.171 -0.000 -0.000 -0.000 -0.000
 -0.000  0.264 -0.000  0.036  0.059
 -0.000 -0.000  0.264  0.059 -0.036
 -0.000  0.036  0.059  0.232  0.000
 -0.000  0.059 -0.036  0.000  0.232
   spin  2
    eigenvalues: 
  0.989  0.989  0.993  0.994  0.994
    eigenvectors:
  0.000  0.000  1.000  0.000  0.000
  0.027  0.347  0.000  0.039  0.587
  0.347  0.027  0.000  0.587  0.039
  0.216  0.410  0.000  0.137  0.237
  0.410  0.216  0.000  0.237  0.137
    occupations:
  0.993 -0.000 -0.000 -0.000 -0.000
 -0.000  0.992 -0.000 -0.002 -0.002
 -0.000 -0.000  0.992 -0.002  0.002
 -0.000 -0.002 -0.002  0.991  0.000
 -0.000 -0.002  0.002  0.000  0.991
atomic mag. moment =  -3.79690
atom    2   Tr[ns(na)] (up, down, total) =   1.27137  4.91098  6.18236
   spin  1
    eigenvalues: 
  0.183  0.198  0.198  0.346  0.346
    eigenvectors:
  1.000  0.000  0.000  0.000  0.000
  0.000  0.183  0.076  0.227  0.515
  0.000  0.076  0.183  0.515  0.227
  0.000  0.106  0.636  0.000  0.258
  0.000  0.636  0.106  0.258  0.000
    occupations:
  0.183 -0.000 -0.000 -0.000 -0.000
 -0.000  0.308 -0.000 -0.053  0.037
 -0.000 -0.000  0.308  0.037  0.053
 -0.000 -0.053  0.037  0.236  0.000
 -0.000  0.037  0.053  0.000  0.236
   spin  2
    eigenvalues: 
  0.968  0.968  0.991  0.992  0.992
    eigenvectors:
  0.000  0.000  1.000  0.000  0.000
  0.479  0.170  0.000  0.299  0.051
  0.170  0.479  0.000  0.051  0.299
  0.005  0.346  0.000  0.043  0.606
  0.346  0.005  0.000  0.606  0.043
    occupations:
  0.991 -0.000 -0.000 -0.000 -0.000
 -0.000  0.976 -0.000  0.007 -0.009
 -0.000 -0.000  0.976 -0.009 -0.007
 -0.000  0.007 -0.009  0.984  0.000
 -0.000 -0.009 -0.007  0.000  0.984
atomic mag. moment =  -3.63961
atom    3   Tr[ns(na)] (up, down, total) =   1.28367  4.91561  6.19927
   spin  1
    eigenvalues: 
  0.201  0.201  0.212  0.334  0.334
    eigenvectors:
  0.000  0.000  1.000  0.000  0.000
  0.360  0.249  0.000  0.286  0.104
  0.249  0.360  0.000  0.104  0.286
  0.023  0.367  0.000  0.091  0.519
  0.367  0.023  0.000  0.519  0.091
    occupations:
  0.212 -0.000 -0.000 -0.000 -0.000
 -0.000  0.253 -0.000 -0.052  0.038
 -0.000 -0.000  0.253  0.038  0.052
 -0.000 -0.052  0.038  0.282  0.000
 -0.000  0.038  0.052  0.000  0.282
   spin  2
    eigenvalues: 
  0.972  0.972  0.990  0.991  0.991
    eigenvectors:
  0.000  0.000  1.000  0.000  0.000
  0.456  0.094  0.000  0.337  0.113
  0.094  0.456  0.000  0.113  0.337
  0.041  0.409  0.000  0.023  0.527
  0.409  0.041  0.000  0.527  0.023
    occupations:
  0.990 -0.000 -0.000 -0.000 -0.000
 -0.000  0.980 -0.000  0.006 -0.007
 -0.000 -0.000  0.980 -0.007 -0.006
 -0.000  0.006 -0.007  0.982  0.000
 -0.000 -0.007 -0.006  0.000  0.982
atomic mag. moment =  -3.63194
atom    4   Tr[ns(na)] (up, down, total) =   4.91489  1.27932  6.19421
   spin  1
    eigenvalues: 
  0.972  0.972  0.990  0.991  0.991
    eigenvectors:
  0.000  0.000  1.000  0.000  0.000
  0.010  0.542  0.000  0.050  0.398
  0.542  0.010  0.000  0.398  0.050
  0.189  0.260  0.000  0.126  0.426
  0.260  0.189  0.000  0.426  0.126
    occupations:
  0.990 -0.000 -0.000 -0.000 -0.000
 -0.000  0.980 -0.000 -0.006 -0.007
 -0.000 -0.000  0.980 -0.007  0.006
 -0.000 -0.006 -0.007  0.982  0.000
 -0.000 -0.007  0.006  0.000  0.982
   spin  2
    eigenvalues: 
  0.201  0.201  0.211  0.334  0.334
    eigenvectors:
  0.000  0.000  1.000  0.000  0.000
  0.001  0.607  0.000  0.001  0.391
  0.607  0.001  0.000  0.391  0.001
  0.155  0.236  0.000  0.183  0.426
  0.236  0.155  0.000  0.426  0.183
    occupations:
  0.211 -0.000 -0.000 -0.000 -0.000
 -0.000  0.253 -0.000  0.052  0.039
 -0.000 -0.000  0.253  0.039 -0.052
 -0.000  0.052  0.039  0.281  0.000
 -0.000  0.039 -0.052  0.000  0.281
atomic mag. moment =   3.63556
atom    5   Tr[ns(na)] (up, down, total) =   4.95955  1.16878  6.12833
   spin  1
    eigenvalues: 
  0.989  0.989  0.993  0.994  0.994
    eigenvectors:
  0.000  0.000  1.000  0.000  0.000
  0.357  0.017  0.000  0.413  0.213
  0.017  0.357  0.000  0.213  0.413
  0.120  0.506  0.000  0.001  0.373
  0.506  0.120  0.000  0.373  0.001
    occupations:
  0.993 -0.000 -0.000 -0.000 -0.000
 -0.000  0.992 -0.000  0.002 -0.002
 -0.000 -0.000  0.992 -0.002 -0.002
 -0.000  0.002 -0.002  0.991  0.000
 -0.000 -0.002 -0.002  0.000  0.991
   spin  2
    eigenvalues: 
  0.174  0.178  0.178  0.320  0.320
    eigenvectors:
  1.000  0.000  0.000  0.000  0.000
  0.000  0.366  0.018  0.595  0.021
  0.000  0.018  0.366  0.021  0.595
  0.000  0.061  0.555  0.046  0.338
  0.000  0.555  0.061  0.338  0.046
    occupations:
  0.174 -0.000 -0.000 -0.000 -0.000
 -0.000  0.265 -0.000 -0.035  0.059
 -0.000 -0.000  0.265  0.059  0.035
 -0.000 -0.035  0.059  0.232  0.000
 -0.000  0.059  0.035  0.000  0.232
atomic mag. moment =   3.79077
atom    6   Tr[ns(na)] (up, down, total) =   4.91005  1.26831  6.17835
   spin  1
    eigenvalues: 
  0.967  0.967  0.991  0.992  0.992
    eigenvectors:
  0.000  0.000  1.000  0.000  0.000
  0.009  0.641  0.000  0.070  0.280
  0.641  0.009  0.000  0.280  0.070
  0.180  0.171  0.000  0.125  0.525
  0.171  0.180  0.000  0.525  0.125
    occupations:
  0.991 -0.000 -0.000 -0.000 -0.000
 -0.000  0.976 -0.000 -0.007 -0.009
 -0.000 -0.000  0.976 -0.009  0.007
 -0.000 -0.007 -0.009  0.984  0.000
 -0.000 -0.009  0.007  0.000  0.984
   spin  2
    eigenvalues: 
  0.182  0.198  0.198  0.346  0.346
    eigenvectors:
  1.000  0.000  0.000  0.000  0.000
  0.000  0.003  0.255  0.007  0.735
  0.000  0.255  0.003  0.735  0.007
  0.000  0.173  0.568  0.110  0.149
  0.000  0.568  0.173  0.149  0.110
    occupations:
  0.182 -0.000 -0.000 -0.000 -0.000
 -0.000  0.307 -0.000  0.053  0.037
 -0.000 -0.000  0.307  0.037 -0.053
 -0.000  0.053  0.037  0.236  0.000
 -0.000  0.037 -0.053  0.000  0.236
atomic mag. moment =   3.64174
N of occupied +U levels =   37.004401
 --- exit write_ns ---

     negative rho (up, down):  1.235E-01 1.235E-01
 --- in v_hubbard ---
Hubbard energy   -0.2175
 -------

     total cpu time spent up to now is      705.6 secs

     total energy              =   -3195.25502322 Ry
     estimated scf accuracy    <       0.00011190 Ry

     total magnetization       =    -0.01 Bohr mag/cell
     absolute magnetization    =    27.21 Bohr mag/cell

     iteration #  7     ecut=    35.00 Ry     beta= 0.40
     CG style diagonalization
     ethr =  2.12E-08,  avg # of iterations =  3.0
 --- enter write_ns ---
 LDA+U parameters:
alpha( 3) = -0.08000000
alpha( 4) = -0.08000000
atom    1   Tr[ns(na)] (up, down, total) =   1.16242  4.95947  6.12188
   spin  1
    eigenvalues: 
  0.171  0.177  0.177  0.319  0.319
    eigenvectors:
  1.000  0.000  0.000  0.000  0.000
  0.000  0.084  0.301  0.027  0.588
  0.000  0.301  0.084  0.588  0.027
  0.000  0.166  0.449  0.206  0.179
  0.000  0.449  0.166  0.179  0.206
    occupations:
  0.171 -0.000 -0.000 -0.000 -0.000
 -0.000  0.264 -0.000  0.036  0.059
 -0.000 -0.000  0.264  0.059 -0.036
 -0.000  0.036  0.059  0.231  0.000
 -0.000  0.059 -0.036  0.000  0.231
   spin  2
    eigenvalues: 
  0.989  0.989  0.993  0.994  0.994
    eigenvectors:
  0.000  0.000  1.000  0.000  0.000
  0.028  0.346  0.000  0.040  0.585
  0.346  0.028  0.000  0.585  0.040
  0.216  0.410  0.000  0.137  0.237
  0.410  0.216  0.000  0.237  0.137
    occupations:
  0.993 -0.000 -0.000 -0.000 -0.000
 -0.000  0.992 -0.000 -0.002 -0.002
 -0.000 -0.000  0.992 -0.002  0.002
 -0.000 -0.002 -0.002  0.991  0.000
 -0.000 -0.002  0.002  0.000  0.991
atomic mag. moment =  -3.79705
atom    2   Tr[ns(na)] (up, down, total) =   1.26798  4.90975  6.17772
   spin  1
    eigenvalues: 
  0.182  0.197  0.197  0.346  0.346
    eigenvectors:
  1.000  0.000  0.000  0.000  0.000
  0.000  0.184  0.075  0.228  0.513
  0.000  0.075  0.184  0.513  0.228
  0.000  0.105  0.635  0.000  0.259
  0.000  0.635  0.105  0.259  0.000
    occupations:
  0.182 -0.000 -0.000 -0.000 -0.000
 -0.000  0.307 -0.000 -0.053  0.038
 -0.000 -0.000  0.307  0.038  0.053
 -0.000 -0.053  0.038  0.236  0.000
 -0.000  0.038  0.053  0.000  0.236
   spin  2
    eigenvalues: 
  0.967  0.967  0.991  0.992  0.992
    eigenvectors:
  0.000  0.000  1.000  0.000  0.000
  0.479  0.170  0.000  0.299  0.051
  0.170  0.479  0.000  0.051  0.299
  0.005  0.346  0.000  0.044  0.606
  0.346  0.005  0.000  0.606  0.044
    occupations:
  0.991 -0.000 -0.000 -0.000 -0.000
 -0.000  0.976 -0.000  0.007 -0.009
 -0.000 -0.000  0.976 -0.009 -0.007
 -0.000  0.007 -0.009  0.984  0.000
 -0.000 -0.009 -0.007  0.000  0.984
atomic mag. moment =  -3.64177
atom    3   Tr[ns(na)] (up, down, total) =   1.28790  4.91608  6.20398
   spin  1
    eigenvalues: 
  0.203  0.203  0.213  0.335  0.335
    eigenvectors:
  0.000  0.000  1.000  0.000  0.000
  0.359  0.254  0.000  0.283  0.104
  0.254  0.359  0.000  0.104  0.283
  0.022  0.365  0.000  0.092  0.521
  0.365  0.022  0.000  0.521  0.092
    occupations:
  0.213 -0.000 -0.000 -0.000 -0.000
 -0.000  0.254 -0.000 -0.052  0.038
 -0.000 -0.000  0.254  0.038  0.052
 -0.000 -0.052  0.038  0.284  0.000
 -0.000  0.038  0.052  0.000  0.284
   spin  2
    eigenvalues: 
  0.972  0.972  0.990  0.991  0.991
    eigenvectors:
  0.000  0.000  1.000  0.000  0.000
  0.457  0.093  0.000  0.337  0.113
  0.093  0.457  0.000  0.113  0.337
  0.041  0.409  0.000  0.023  0.527
  0.409  0.041  0.000  0.527  0.023
    occupations:
  0.990 -0.000 -0.000 -0.000 -0.000
 -0.000  0.981 -0.000  0.006 -0.007
 -0.000 -0.000  0.981 -0.007 -0.006
 -0.000  0.006 -0.007  0.982  0.000
 -0.000 -0.007 -0.006  0.000  0.982
atomic mag. moment =  -3.62817
atom    4   Tr[ns(na)] (up, down, total) =   4.91603  1.28728  6.20331
   spin  1
    eigenvalues: 
  0.972  0.972  0.990  0.991  0.991
    eigenvectors:
  0.000  0.000  1.000  0.000  0.000
  0.010  0.540  0.000  0.050  0.400
  0.540  0.010  0.000  0.400  0.050
  0.189  0.261  0.000  0.126  0.424
  0.261  0.189  0.000  0.424  0.126
    occupations:
  0.990 -0.000 -0.000 -0.000 -0.000
 -0.000  0.981 -0.000 -0.006 -0.007
 -0.000 -0.000  0.981 -0.007  0.006
 -0.000 -0.006 -0.007  0.982  0.000
 -0.000 -0.007  0.006  0.000  0.982
   spin  2
    eigenvalues: 
  0.202  0.202  0.213  0.335  0.335
    eigenvectors:
  0.000  0.000  1.000  0.000  0.000
  0.002  0.610  0.000  0.001  0.387
  0.610  0.002  0.000  0.387  0.001
  0.155  0.233  0.000  0.182  0.429
  0.233  0.155  0.000  0.429  0.182
    occupations:
  0.213 -0.000 -0.000 -0.000 -0.000
 -0.000  0.254 -0.000  0.052  0.038
 -0.000 -0.000  0.254  0.038 -0.052
 -0.000  0.052  0.038  0.283  0.000
 -0.000  0.038 -0.052  0.000  0.283
atomic mag. moment =   3.62875
atom    5   Tr[ns(na)] (up, down, total) =   4.95934  1.16174  6.12108
   spin  1
    eigenvalues: 
  0.989  0.989  0.993  0.994  0.994
    eigenvectors:
  0.000  0.000  1.000  0.000  0.000
  0.359  0.017  0.000  0.414  0.209
  0.017  0.359  0.000  0.209  0.414
  0.119  0.505  0.000  0.001  0.375
  0.505  0.119  0.000  0.375  0.001
    occupations:
  0.993 -0.000 -0.000 -0.000 -0.000
 -0.000  0.992 -0.000  0.002 -0.002
 -0.000 -0.000  0.992 -0.002 -0.002
 -0.000  0.002 -0.002  0.991  0.000
 -0.000 -0.002 -0.002  0.000  0.991
   spin  2
    eigenvalues: 
  0.171  0.177  0.177  0.319  0.319
    eigenvectors:
  1.000  0.000  0.000  0.000  0.000
  0.000  0.367  0.019  0.594  0.021
  0.000  0.019  0.367  0.021  0.594
  0.000  0.060  0.554  0.046  0.339
  0.000  0.554  0.060  0.339  0.046
    occupations:
  0.171 -0.000 -0.000 -0.000 -0.000
 -0.000  0.264 -0.000 -0.036  0.059
 -0.000 -0.000  0.264  0.059  0.036
 -0.000 -0.036  0.059  0.231  0.000
 -0.000  0.059  0.036  0.000  0.231
atomic mag. moment =   3.79760
atom    6   Tr[ns(na)] (up, down, total) =   4.90963  1.26832  6.17795
   spin  1
    eigenvalues: 
  0.967  0.967  0.991  0.992  0.992
    eigenvectors:
  0.000  0.000  1.000  0.000  0.000
  0.009  0.641  0.000  0.070  0.281
  0.641  0.009  0.000  0.281  0.070
  0.180  0.171  0.000  0.125  0.525
  0.171  0.180  0.000  0.525  0.125
    occupations:
  0.991 -0.000 -0.000 -0.000 -0.000
 -0.000  0.976 -0.000 -0.007 -0.009
 -0.000 -0.000  0.976 -0.009  0.007
 -0.000 -0.007 -0.009  0.983  0.000
 -0.000 -0.009  0.007  0.000  0.983
   spin  2
    eigenvalues: 
  0.182  0.197  0.197  0.346  0.346
    eigenvectors:
  1.000  0.000  0.000  0.000  0.000
  0.000  0.003  0.256  0.007  0.734
  0.000  0.256  0.003  0.734  0.007
  0.000  0.172  0.568  0.110  0.149
  0.000  0.568  0.172  0.149  0.110
    occupations:
  0.182 -0.000 -0.000 -0.000 -0.000
 -0.000  0.307 -0.000  0.053  0.038
 -0.000 -0.000  0.307  0.038 -0.053
 -0.000  0.053  0.038  0.236  0.000
 -0.000  0.038 -0.053  0.000  0.236
atomic mag. moment =   3.64130
N of occupied +U levels =   37.005931
 --- exit write_ns ---

     negative rho (up, down):  1.235E-01 1.235E-01
 --- in v_hubbard ---
Hubbard energy   -0.2175
 -------

     total cpu time spent up to now is      812.8 secs

     total energy              =   -3195.25503268 Ry
     estimated scf accuracy    <       0.00003344 Ry

     total magnetization       =    -0.00 Bohr mag/cell
     absolute magnetization    =    27.21 Bohr mag/cell

     iteration #  8     ecut=    35.00 Ry     beta= 0.40
     CG style diagonalization
     ethr =  1.14E-08,  avg # of iterations =  3.0
 --- enter write_ns ---
 LDA+U parameters:
alpha( 3) = -0.08000000
alpha( 4) = -0.08000000
atom    1   Tr[ns(na)] (up, down, total) =   1.16340  4.95942  6.12282
   spin  1
    eigenvalues: 
  0.172  0.177  0.177  0.319  0.319
    eigenvectors:
  1.000  0.000  0.000  0.000  0.000
  0.000  0.083  0.301  0.027  0.588
  0.000  0.301  0.083  0.588  0.027
  0.000  0.166  0.449  0.206  0.179
  0.000  0.449  0.166  0.179  0.206
    occupations:
  0.172 -0.000 -0.000 -0.000 -0.000
 -0.000  0.264 -0.000  0.035  0.059
 -0.000 -0.000  0.264  0.059 -0.035
 -0.000  0.035  0.059  0.232  0.000
 -0.000  0.059 -0.035  0.000  0.232
   spin  2
    eigenvalues: 
  0.989  0.989  0.993  0.994  0.994
    eigenvectors:
  0.000  0.000  1.000  0.000  0.000
  0.028  0.345  0.000  0.040  0.586
  0.345  0.028  0.000  0.586  0.040
  0.216  0.411  0.000  0.136  0.237
  0.411  0.216  0.000  0.237  0.136
    occupations:
  0.993 -0.000 -0.000 -0.000 -0.000
 -0.000  0.992 -0.000 -0.002 -0.002
 -0.000 -0.000  0.992 -0.002  0.002
 -0.000 -0.002 -0.002  0.991  0.000
 -0.000 -0.002  0.002  0.000  0.991
atomic mag. moment =  -3.79603
atom    2   Tr[ns(na)] (up, down, total) =   1.27061  4.91025  6.18086
   spin  1
    eigenvalues: 
  0.182  0.198  0.198  0.346  0.346
    eigenvectors:
  1.000  0.000  0.000  0.000  0.000
  0.000  0.183  0.076  0.227  0.515
  0.000  0.076  0.183  0.515  0.227
  0.000  0.106  0.636  0.000  0.258
  0.000  0.636  0.106  0.258  0.000
    occupations:
  0.182 -0.000 -0.000 -0.000 -0.000
 -0.000  0.308 -0.000 -0.053  0.037
 -0.000 -0.000  0.308  0.037  0.053
 -0.000 -0.053  0.037  0.236  0.000
 -0.000  0.037  0.053  0.000  0.236
   spin  2
    eigenvalues: 
  0.968  0.968  0.991  0.992  0.992
    eigenvectors:
  0.000  0.000  1.000  0.000  0.000
  0.479  0.171  0.000  0.299  0.051
  0.171  0.479  0.000  0.051  0.299
  0.005  0.345  0.000  0.044  0.606
  0.345  0.005  0.000  0.606  0.044
    occupations:
  0.991 -0.000 -0.000 -0.000 -0.000
 -0.000  0.976 -0.000  0.007 -0.009
 -0.000 -0.000  0.976 -0.009 -0.007
 -0.000  0.007 -0.009  0.984  0.000
 -0.000 -0.009 -0.007  0.000  0.984
atomic mag. moment =  -3.63964
atom    3   Tr[ns(na)] (up, down, total) =   1.28424  4.91531  6.19955
   spin  1
    eigenvalues: 
  0.202  0.202  0.212  0.334  0.334
    eigenvectors:
  0.000  0.000  1.000  0.000  0.000
  0.359  0.251  0.000  0.286  0.104
  0.251  0.359  0.000  0.104  0.286
  0.023  0.367  0.000  0.091  0.519
  0.367  0.023  0.000  0.519  0.091
    occupations:
  0.212 -0.000 -0.000 -0.000 -0.000
 -0.000  0.253 -0.000 -0.052  0.038
 -0.000 -0.000  0.253  0.038  0.052
 -0.000 -0.052  0.038  0.283  0.000
 -0.000  0.038  0.052  0.000  0.283
   spin  2
    eigenvalues: 
  0.972  0.972  0.990  0.991  0.991
    eigenvectors:
  0.000  0.000  1.000  0.000  0.000
  0.458  0.094  0.000  0.337  0.112
  0.094  0.458  0.000  0.112  0.337
  0.041  0.408  0.000  0.024  0.528
  0.408  0.041  0.000  0.528  0.024
    occupations:
  0.990 -0.000 -0.000 -0.000 -0.000
 -0.000  0.980 -0.000  0.006 -0.007
 -0.000 -0.000  0.980 -0.007 -0.006
 -0.000  0.006 -0.007  0.982  0.000
 -0.000 -0.007 -0.006  0.000  0.982
atomic mag. moment =  -3.63107
atom    4   Tr[ns(na)] (up, down, total) =   4.91544  1.28492  6.20035
   spin  1
    eigenvalues: 
  0.972  0.972  0.990  0.991  0.991
    eigenvectors:
  0.000  0.000  1.000  0.000  0.000
  0.010  0.541  0.000  0.050  0.399
  0.541  0.010  0.000  0.399  0.050
  0.188  0.260  0.000  0.126  0.425
  0.260  0.188  0.000  0.425  0.126
    occupations:
  0.990 -0.000 -0.000 -0.000 -0.000
 -0.000  0.980 -0.000 -0.006 -0.007
 -0.000 -0.000  0.980 -0.007  0.006
 -0.000 -0.006 -0.007  0.982  0.000
 -0.000 -0.007  0.006  0.000  0.982
   spin  2
    eigenvalues: 
  0.202  0.202  0.212  0.335  0.335
    eigenvectors:
  0.000  0.000  1.000  0.000  0.000
  0.002  0.609  0.000  0.001  0.389
  0.609  0.002  0.000  0.389  0.001
  0.155  0.234  0.000  0.182  0.428
  0.234  0.155  0.000  0.428  0.182
    occupations:
  0.212 -0.000 -0.000 -0.000 -0.000
 -0.000  0.254 -0.000  0.052  0.038
 -0.000 -0.000  0.254  0.038 -0.052
 -0.000  0.052  0.038  0.283  0.000
 -0.000  0.038 -0.052  0.000  0.283
atomic mag. moment =   3.63052
atom    5   Tr[ns(na)] (up, down, total) =   4.95927  1.16126  6.12053
   spin  1
    eigenvalues: 
  0.989  0.989  0.993  0.994  0.994
    eigenvectors:
  0.000  0.000  1.000  0.000  0.000
  0.358  0.017  0.000  0.413  0.212
  0.017  0.358  0.000  0.212  0.413
  0.120  0.505  0.000  0.001  0.374
  0.505  0.120  0.000  0.374  0.001
    occupations:
  0.993 -0.000 -0.000 -0.000 -0.000
 -0.000  0.992 -0.000  0.002 -0.002
 -0.000 -0.000  0.992 -0.002 -0.002
 -0.000  0.002 -0.002  0.991  0.000
 -0.000 -0.002 -0.002  0.000  0.991
   spin  2
    eigenvalues: 
  0.171  0.177  0.177  0.319  0.319
    eigenvectors:
  1.000  0.000  0.000  0.000  0.000
  0.000  0.366  0.019  0.593  0.022
  0.000  0.019  0.366  0.022  0.593
  0.000  0.060  0.554  0.046  0.339
  0.000  0.554  0.060  0.339  0.046
    occupations:
  0.171 -0.000 -0.000 -0.000 -0.000
 -0.000  0.264 -0.000 -0.036  0.059
 -0.000 -0.000  0.264  0.059  0.036
 -0.000 -0.036  0.059  0.231  0.000
 -0.000  0.059  0.036  0.000  0.231
atomic mag. moment =   3.79801
atom    6   Tr[ns(na)] (up, down, total) =   4.91033  1.27113  6.18146
   spin  1
    eigenvalues: 
  0.968  0.968  0.991  0.992  0.992
    eigenvectors:
  0.000  0.000  1.000  0.000  0.000
  0.009  0.641  0.000  0.070  0.280
  0.641  0.009  0.000  0.280  0.070
  0.179  0.171  0.000  0.125  0.525
  0.171  0.179  0.000  0.525  0.125
    occupations:
  0.991 -0.000 -0.000 -0.000 -0.000
 -0.000  0.976 -0.000 -0.007 -0.009
 -0.000 -0.000  0.976 -0.009  0.007
 -0.000 -0.007 -0.009  0.984  0.000
 -0.000 -0.009  0.007  0.000  0.984
   spin  2
    eigenvalues: 
  0.182  0.198  0.198  0.346  0.346
    eigenvectors:
  1.000  0.000  0.000  0.000  0.000
  0.000  0.003  0.255  0.007  0.735
  0.000  0.255  0.003  0.735  0.007
  0.000  0.172  0.570  0.109  0.149
  0.000  0.570  0.172  0.149  0.109
    occupations:
  0.182 -0.000 -0.000 -0.000 -0.000
 -0.000  0.308 -0.000  0.053  0.037
 -0.000 -0.000  0.308  0.037 -0.053
 -0.000  0.053  0.037  0.236  0.000
 -0.000  0.037 -0.053  0.000  0.236
atomic mag. moment =   3.63920
N of occupied +U levels =   37.005561
 --- exit write_ns ---

     negative rho (up, down):  1.235E-01 1.235E-01
 --- in v_hubbard ---
Hubbard energy   -0.2175
 -------

     total cpu time spent up to now is      921.1 secs

     total energy              =   -3195.25503464 Ry
     estimated scf accuracy    <       0.00001777 Ry

     total magnetization       =     0.00 Bohr mag/cell
     absolute magnetization    =    27.21 Bohr mag/cell

     iteration #  9     ecut=    35.00 Ry     beta= 0.40
     CG style diagonalization
     ethr =  6.05E-09,  avg # of iterations =  3.0
 --- enter write_ns ---
 LDA+U parameters:
alpha( 3) = -0.08000000
alpha( 4) = -0.08000000
atom    1   Tr[ns(na)] (up, down, total) =   1.16215  4.95941  6.12156
   spin  1
    eigenvalues: 
  0.171  0.177  0.177  0.319  0.319
    eigenvectors:
  1.000  0.000  0.000  0.000  0.000
  0.000  0.083  0.302  0.027  0.588
  0.000  0.302  0.083  0.588  0.027
  0.000  0.166  0.449  0.206  0.179
  0.000  0.449  0.166  0.179  0.206
    occupations:
  0.171 -0.000 -0.000 -0.000 -0.000
 -0.000  0.264 -0.000  0.036  0.059
 -0.000 -0.000  0.264  0.059 -0.036
 -0.000  0.036  0.059  0.231  0.000
 -0.000  0.059 -0.036  0.000  0.231
   spin  2
    eigenvalues: 
  0.989  0.989  0.993  0.994  0.994
    eigenvectors:
  0.000  0.000  1.000  0.000  0.000
  0.028  0.346  0.000  0.040  0.586
  0.346  0.028  0.000  0.586  0.040
  0.216  0.410  0.000  0.137  0.237
  0.410  0.216  0.000  0.237  0.137
    occupations:
  0.993 -0.000 -0.000 -0.000 -0.000
 -0.000  0.992 -0.000 -0.002 -0.002
 -0.000 -0.000  0.992 -0.002  0.002
 -0.000 -0.002 -0.002  0.991  0.000
 -0.000 -0.002  0.002  0.000  0.991
atomic mag. moment =  -3.79726
atom    2   Tr[ns(na)] (up, down, total) =   1.26886  4.90992  6.17877
   spin  1
    eigenvalues: 
  0.182  0.197  0.197  0.346  0.346
    eigenvectors:
  1.000  0.000  0.000  0.000  0.000
  0.000  0.183  0.075  0.227  0.514
  0.000  0.075  0.183  0.514  0.227
  0.000  0.106  0.636  0.000  0.259
  0.000  0.636  0.106  0.259  0.000
    occupations:
  0.182 -0.000 -0.000 -0.000 -0.000
 -0.000  0.308 -0.000 -0.053  0.037
 -0.000 -0.000  0.308  0.037  0.053
 -0.000 -0.053  0.037  0.236  0.000
 -0.000  0.037  0.053  0.000  0.236
   spin  2
    eigenvalues: 
  0.967  0.967  0.991  0.992  0.992
    eigenvectors:
  0.000  0.000  1.000  0.000  0.000
  0.479  0.171  0.000  0.299  0.051
  0.171  0.479  0.000  0.051  0.299
  0.005  0.346  0.000  0.044  0.606
  0.346  0.005  0.000  0.606  0.044
    occupations:
  0.991 -0.000 -0.000 -0.000 -0.000
 -0.000  0.976 -0.000  0.007 -0.009
 -0.000 -0.000  0.976 -0.009 -0.007
 -0.000  0.007 -0.009  0.984  0.000
 -0.000 -0.009 -0.007  0.000  0.984
atomic mag. moment =  -3.64106
atom    3   Tr[ns(na)] (up, down, total) =   1.28600  4.91563  6.20162
   spin  1
    eigenvalues: 
  0.202  0.202  0.213  0.335  0.335
    eigenvectors:
  0.000  0.000  1.000  0.000  0.000
  0.359  0.252  0.000  0.285  0.104
  0.252  0.359  0.000  0.104  0.285
  0.023  0.366  0.000  0.091  0.520
  0.366  0.023  0.000  0.520  0.091
    occupations:
  0.213 -0.000 -0.000 -0.000 -0.000
 -0.000  0.254 -0.000 -0.052  0.038
 -0.000 -0.000  0.254  0.038  0.052
 -0.000 -0.052  0.038  0.283  0.000
 -0.000  0.038  0.052  0.000  0.283
   spin  2
    eigenvalues: 
  0.972  0.972  0.990  0.991  0.991
    eigenvectors:
  0.000  0.000  1.000  0.000  0.000
  0.457  0.093  0.000  0.337  0.112
  0.093  0.457  0.000  0.112  0.337
  0.041  0.408  0.000  0.024  0.527
  0.408  0.041  0.000  0.527  0.024
    occupations:
  0.990 -0.000 -0.000 -0.000 -0.000
 -0.000  0.980 -0.000  0.006 -0.007
 -0.000 -0.000  0.980 -0.007 -0.006
 -0.000  0.006 -0.007  0.982  0.000
 -0.000 -0.007 -0.006  0.000  0.982
atomic mag. moment =  -3.62963
atom    4   Tr[ns(na)] (up, down, total) =   4.91562  1.28577  6.20139
   spin  1
    eigenvalues: 
  0.972  0.972  0.990  0.991  0.991
    eigenvectors:
  0.000  0.000  1.000  0.000  0.000
  0.010  0.541  0.000  0.050  0.400
  0.541  0.010  0.000  0.400  0.050
  0.189  0.261  0.000  0.126  0.424
  0.261  0.189  0.000  0.424  0.126
[...]
     atom:   29    charge:    5.2901    magn:    0.2049    constr:    0.0000
     atom:   30    charge:    5.2901    magn:    0.2049    constr:    0.0000

     total cpu time spent up to now is     1365.3 secs

     End of self-consistent calculation

 ------ SPIN UP ------------


          k = 0.0000 0.0000 0.0000 (  8497 PWs)   bands (ev):

   -78.3991 -78.0858 -77.9648 -73.4257 -73.3418 -73.2461 -44.4175 -44.3681
   -44.3681 -44.0823 -44.0823 -44.0762 -44.0672 -43.9072 -43.9072 -39.5771
   -39.5360 -39.5360 -39.4851 -39.4569 -39.4569 -39.4265 -39.3535 -39.3535
   -10.7322 -10.7322 -10.7088 -10.7088 -10.6943 -10.6812 -10.6648 -10.6648
   -10.6496 -10.6496 -10.6420 -10.6420 -10.6207 -10.6207 -10.5948 -10.5847
   -10.5737 -10.5737 -10.5647 -10.5647 -10.5483 -10.5483 -10.5426 -10.5355
   -10.5355 -10.5312 -10.5106 -10.5106 -10.4993 -10.4993  -7.3958  -7.0068
    -6.8715  -6.0582  -5.9766  -5.6131  -5.6129  -5.5127  -5.5126  -5.4465
    -5.4465  -5.4156  -5.3205  -5.3204  -5.1177  -5.1176  -4.9617  -4.9616
     1.5658   1.6823   1.7136   2.4047   2.5289   3.3063   5.3896   5.3896
     5.4844   5.9257   5.9257   6.0187   6.0523   6.0523   6.2399   6.2876
     6.2876   6.5006   6.5342   6.5342   6.5395   6.6899   6.6899   6.8528
     6.8529   6.9911   7.1191   7.2418   7.2418   7.6242   7.6242   7.6558
     7.8079   8.1581   8.1582   8.3985   8.4998   8.4999   8.6794   8.6794
     8.9068   9.0871   9.0872   9.1476   9.2466   9.2467   9.3174   9.4275
     9.4275   9.4372   9.5500   9.5501   9.7093   9.7093  10.0101  10.0102
    10.0562  10.0563  10.0772  10.1216  10.1216  10.4859  10.4860  10.6213
    10.8325  10.9663  11.0576  11.0576  11.1376  11.1657  11.2793  11.8952
    11.8952  12.6441  12.6441  12.9040  12.9040  13.0844  13.1659  13.1710
    13.1710  13.2042  13.3469  13.3469  14.2197  14.2198  14.9744  14.9744
    15.5009  15.6127  15.6127  15.7134  15.7739  15.9019  17.1209  17.1210
    17.1453  17.1454  17.2466  17.2467  17.5271  17.5912  17.6605  17.6606
    17.7185  17.7185  18.1335  18.1336  19.5905  20.5915  21.1425  21.2663
    21.5306  21.5306  22.0640  22.2017  22.5637  22.5637  22.6475  22.6476
    22.7661  22.7662  23.9825  23.9825  24.0500  24.0500  24.1666  24.3954

     occupation numbers 
     1.0000   1.0000   1.0000   1.0000   1.0000   1.0000   1.0000   1.0000
     1.0000   1.0000   1.0000   1.0000   1.0000   1.0000   1.0000   1.0000
     1.0000   1.0000   1.0000   1.0000   1.0000   1.0000   1.0000   1.0000
     1.0000   1.0000   1.0000   1.0000   1.0000   1.0000   1.0000   1.0000
     1.0000   1.0000   1.0000   1.0000   1.0000   1.0000   1.0000   1.0000
     1.0000   1.0000   1.0000   1.0000   1.0000   1.0000   1.0000   1.0000
     1.0000   1.0000   1.0000   1.0000   1.0000   1.0000   1.0000   1.0000
     1.0000   1.0000   1.0000   1.0000   1.0000   1.0000   1.0000   1.0000
     1.0000   1.0000   1.0000   1.0000   1.0000   1.0000   1.0000   1.0000
     1.0000   1.0000   1.0000   1.0000   1.0000   1.0000   1.0000   1.0000
     1.0000   1.0000   1.0000   1.0000   1.0000   1.0000   1.0000   1.0000
     1.0000   1.0000   1.0000   1.0000   1.0000   1.0000   1.0000   1.0000
     1.0000   1.0000   1.0000   1.0000   1.0000   1.0000   1.0000   1.0000
     1.0000   1.0000   1.0000   1.0000   1.0000   1.0000   1.0000   1.0000
     1.0000   1.0000   1.0000   1.0000   1.0000   1.0000   1.0000   1.0000
     1.0000   1.0000   1.0000   1.0000   1.0000   1.0000   1.0000   1.0000
     1.0000   1.0000   1.0000   1.0000   1.0000   1.0000   1.0000   1.0000
     1.0000   1.0000   1.0000   1.0000   1.0000   1.0000   1.0000   1.0000
     1.0000   1.0081   1.0080  -0.0279  -0.0279  -0.0022  -0.0001  -0.0001
    -0.0001  -0.0000  -0.0000  -0.0000  -0.0000  -0.0000  -0.0000  -0.0000
    -0.0000  -0.0000  -0.0000  -0.0000  -0.0000  -0.0000  -0.0000  -0.0000
    -0.0000  -0.0000  -0.0000  -0.0000  -0.0000  -0.0000  -0.0000  -0.0000
    -0.0000  -0.0000  -0.0000  -0.0000  -0.0000  -0.0000  -0.0000  -0.0000
    -0.0000  -0.0000  -0.0000  -0.0000  -0.0000  -0.0000  -0.0000  -0.0000
    -0.0000  -0.0000  -0.0000  -0.0000  -0.0000  -0.0000  -0.0000  -0.0000

          k = 0.0000-0.5774 0.0000 (  8560 PWs)   bands (ev):

   -78.3991 -78.0858 -77.9648 -73.4257 -73.3418 -73.2461 -44.4174 -44.3682
   -44.3682 -44.0824 -44.0824 -44.0762 -44.0671 -43.9073 -43.9072 -39.5770
   -39.5361 -39.5360 -39.4851 -39.4570 -39.4570 -39.4264 -39.3536 -39.3535
   -10.7288 -10.7093 -10.6974 -10.6921 -10.6864 -10.6797 -10.6627 -10.6480
   -10.6426 -10.6375 -10.6292 -10.6279 -10.6233 -10.6199 -10.5934 -10.5841
   -10.5785 -10.5738 -10.5671 -10.5660 -10.5633 -10.5559 -10.5516 -10.5398
   -10.5388 -10.5283 -10.5265 -10.5164 -10.5138 -10.5025  -6.6888  -6.6553
    -6.4925  -6.2894  -6.2409  -5.9013  -5.8173  -5.7581  -5.6419  -5.5751
    -5.5136  -5.4924  -5.4146  -5.3498  -5.2234  -5.1667  -5.0618  -4.9876
     1.5004   1.7555   1.7988   2.0526   2.1288   2.3026   5.5703   5.8471
     5.8659   6.0069   6.1955   6.2409   6.3176   6.3626   6.3850   6.5609
     6.6015   6.6642   6.7880   6.8345   7.0756   7.1020   7.1744   7.2929
     7.3384   7.4678   7.5534   7.5924   7.7342   7.8386   7.8582   7.9714
     8.0266   8.1735   8.2121   8.3293   8.3495   8.3615   8.4916   8.5572
     8.7186   8.7900   8.8771   8.9929   9.0307   9.1126   9.1467   9.2309
     9.2580   9.3592   9.4297   9.5253   9.6313   9.7305   9.8130   9.8374
     9.8600   9.9497   9.9798  10.0886  10.1631  10.2561  10.2946  10.5037
    10.6997  10.7659  10.9810  11.0660  11.1720  11.3557  11.5376  11.8459
    11.8752  11.9459  12.5680  12.8774  13.0058  13.0810  13.1621  13.2037
    13.2872  13.3314  13.4954  13.6154  14.2331  14.2806  14.4865  14.7678
    14.8192  15.1939  15.3836  15.6787  15.7461  15.8632  15.9453  16.0031
    16.1063  16.1524  16.2411  16.9713  17.1257  17.2508  17.3203  17.3908
    17.4692  17.5316  17.6157  17.6916  21.3746  21.5794  21.8659  22.2679
    22.4414  22.5467  22.9175  22.9740  23.0533  23.1902  23.3102  23.3409
    23.4243  23.4597  23.9394  23.9658  24.1498  24.1794  24.3191  24.4299

     occupation numbers 
     1.0000   1.0000   1.0000   1.0000   1.0000   1.0000   1.0000   1.0000
     1.0000   1.0000   1.0000   1.0000   1.0000   1.0000   1.0000   1.0000
     1.0000   1.0000   1.0000   1.0000   1.0000   1.0000   1.0000   1.0000
     1.0000   1.0000   1.0000   1.0000   1.0000   1.0000   1.0000   1.0000
     1.0000   1.0000   1.0000   1.0000   1.0000   1.0000   1.0000   1.0000
     1.0000   1.0000   1.0000   1.0000   1.0000   1.0000   1.0000   1.0000
     1.0000   1.0000   1.0000   1.0000   1.0000   1.0000   1.0000   1.0000
     1.0000   1.0000   1.0000   1.0000   1.0000   1.0000   1.0000   1.0000
     1.0000   1.0000   1.0000   1.0000   1.0000   1.0000   1.0000   1.0000
     1.0000   1.0000   1.0000   1.0000   1.0000   1.0000   1.0000   1.0000
     1.0000   1.0000   1.0000   1.0000   1.0000   1.0000   1.0000   1.0000
     1.0000   1.0000   1.0000   1.0000   1.0000   1.0000   1.0000   1.0000
     1.0000   1.0000   1.0000   1.0000   1.0000   1.0000   1.0000   1.0000
     1.0000   1.0000   1.0000   1.0000   1.0000   1.0000   1.0000   1.0000
     1.0000   1.0000   1.0000   1.0000   1.0000   1.0000   1.0000   1.0000
     1.0000   1.0000   1.0000   1.0000   1.0000   1.0000   1.0000   1.0000
     1.0000   1.0000   1.0000   1.0000   1.0000   1.0000   1.0000   1.0000
     1.0000   1.0000   1.0000   1.0000   1.0000   1.0000   1.0000   1.0000
     1.0000   1.0000   1.0302   0.0019  -0.0153  -0.0024  -0.0001  -0.0000
    -0.0000  -0.0000  -0.0000  -0.0000  -0.0000  -0.0000  -0.0000  -0.0000
    -0.0000  -0.0000  -0.0000  -0.0000  -0.0000  -0.0000  -0.0000  -0.0000
    -0.0000  -0.0000  -0.0000  -0.0000  -0.0000  -0.0000  -0.0000  -0.0000
    -0.0000  -0.0000  -0.0000  -0.0000  -0.0000  -0.0000  -0.0000  -0.0000
    -0.0000  -0.0000  -0.0000  -0.0000  -0.0000  -0.0000  -0.0000  -0.0000
    -0.0000  -0.0000  -0.0000  -0.0000  -0.0000  -0.0000  -0.0000  -0.0000

 ------ SPIN DOWN ----------


          k = 0.0000 0.0000 0.0000 (  8497 PWs)   bands (ev):

   -78.3992 -78.0869 -77.9640 -73.4256 -73.3408 -73.2469 -44.4177 -44.3682
   -44.3682 -44.0835 -44.0835 -44.0755 -44.0683 -43.9064 -43.9064 -39.5769
   -39.5360 -39.5359 -39.4841 -39.4560 -39.4560 -39.4272 -39.3542 -39.3542
   -10.7319 -10.7319 -10.7091 -10.7091 -10.6936 -10.6818 -10.6645 -10.6645
   -10.6496 -10.6496 -10.6425 -10.6425 -10.6205 -10.6204 -10.5954 -10.5841
   -10.5738 -10.5738 -10.5647 -10.5647 -10.5484 -10.5484 -10.5429 -10.5354
   -10.5354 -10.5309 -10.5109 -10.5109 -10.4991 -10.4991  -7.3959  -7.0069
    -6.8714  -6.0580  -5.9767  -5.6125  -5.6123  -5.5129  -5.5129  -5.4466
    -5.4466  -5.4158  -5.3210  -5.3209  -5.1178  -5.1178  -4.9614  -4.9613
     1.5659   1.6822   1.7136   2.4047   2.5288   3.3064   5.3895   5.3895
     5.4843   5.9256   5.9256   6.0186   6.0523   6.0523   6.2399   6.2875
     6.2875   6.5005   6.5341   6.5341   6.5392   6.6893   6.6893   6.8534
     6.8535   6.9909   7.1193   7.2418   7.2419   7.6241   7.6241   7.6559
     7.8083   8.1581   8.1582   8.3984   8.4997   8.4997   8.6794   8.6794
     8.9067   9.0869   9.0870   9.1475   9.2466   9.2466   9.3173   9.4275
     9.4276   9.4370   9.5501   9.5502   9.7092   9.7092  10.0102  10.0102
    10.0564  10.0565  10.0775  10.1216  10.1216  10.4860  10.4861  10.6220
    10.8323  10.9661  11.0579  11.0579  11.1376  11.1657  11.2792  11.8955
    11.8956  12.6442  12.6443  12.9040  12.9040  13.0844  13.1660  13.1712
    13.1712  13.2041  13.3465  13.3465  14.2195  14.2196  14.9741  14.9741
    15.5010  15.6125  15.6125  15.7130  15.7742  15.9019  17.1210  17.1211
    17.1458  17.1459  17.2461  17.2461  17.5271  17.5912  17.6606  17.6606
    17.7184  17.7184  18.1334  18.1334  19.5912  20.5915  21.1429  21.2658
    21.5308  21.5308  22.0638  22.2014  22.5638  22.5639  22.6477  22.6477
    22.7660  22.7661  23.9824  23.9824  24.0501  24.0501  24.1666  24.3967

     occupation numbers 
     1.0000   1.0000   1.0000   1.0000   1.0000   1.0000   1.0000   1.0000
     1.0000   1.0000   1.0000   1.0000   1.0000   1.0000   1.0000   1.0000
     1.0000   1.0000   1.0000   1.0000   1.0000   1.0000   1.0000   1.0000
     1.0000   1.0000   1.0000   1.0000   1.0000   1.0000   1.0000   1.0000
     1.0000   1.0000   1.0000   1.0000   1.0000   1.0000   1.0000   1.0000
     1.0000   1.0000   1.0000   1.0000   1.0000   1.0000   1.0000   1.0000
     1.0000   1.0000   1.0000   1.0000   1.0000   1.0000   1.0000   1.0000
     1.0000   1.0000   1.0000   1.0000   1.0000   1.0000   1.0000   1.0000
     1.0000   1.0000   1.0000   1.0000   1.0000   1.0000   1.0000   1.0000
     1.0000   1.0000   1.0000   1.0000   1.0000   1.0000   1.0000   1.0000
     1.0000   1.0000   1.0000   1.0000   1.0000   1.0000   1.0000   1.0000
     1.0000   1.0000   1.0000   1.0000   1.0000   1.0000   1.0000   1.0000
     1.0000   1.0000   1.0000   1.0000   1.0000   1.0000   1.0000   1.0000
     1.0000   1.0000   1.0000   1.0000   1.0000   1.0000   1.0000   1.0000
     1.0000   1.0000   1.0000   1.0000   1.0000   1.0000   1.0000   1.0000
     1.0000   1.0000   1.0000   1.0000   1.0000   1.0000   1.0000   1.0000
     1.0000   1.0000   1.0000   1.0000   1.0000   1.0000   1.0000   1.0000
     1.0000   1.0000   1.0000   1.0000   1.0000   1.0000   1.0000   1.0000
     1.0000   1.0079   1.0078  -0.0279  -0.0279  -0.0022  -0.0001  -0.0001
    -0.0001  -0.0000  -0.0000  -0.0000  -0.0000  -0.0000  -0.0000  -0.0000
    -0.0000  -0.0000  -0.0000  -0.0000  -0.0000  -0.0000  -0.0000  -0.0000
    -0.0000  -0.0000  -0.0000  -0.0000  -0.0000  -0.0000  -0.0000  -0.0000
    -0.0000  -0.0000  -0.0000  -0.0000  -0.0000  -0.0000  -0.0000  -0.0000
    -0.0000  -0.0000  -0.0000  -0.0000  -0.0000  -0.0000  -0.0000  -0.0000
    -0.0000  -0.0000  -0.0000  -0.0000  -0.0000  -0.0000  -0.0000  -0.0000

          k = 0.0000-0.5774 0.0000 (  8560 PWs)   bands (ev):

   -78.3992 -78.0869 -77.9640 -73.4256 -73.3408 -73.2469 -44.4176 -44.3683
   -44.3682 -44.0836 -44.0835 -44.0754 -44.0682 -43.9065 -43.9065 -39.5769
   -39.5360 -39.5360 -39.4841 -39.4560 -39.4560 -39.4271 -39.3543 -39.3542
   -10.7285 -10.7096 -10.6967 -10.6915 -10.6871 -10.6803 -10.6626 -10.6474
   -10.6425 -10.6380 -10.6296 -10.6284 -10.6227 -10.6197 -10.5940 -10.5835
   -10.5787 -10.5739 -10.5671 -10.5657 -10.5638 -10.5556 -10.5517 -10.5399
   -10.5389 -10.5281 -10.5268 -10.5161 -10.5141 -10.5022  -6.6885  -6.6555
    -6.4926  -6.2895  -6.2409  -5.9012  -5.8173  -5.7579  -5.6420  -5.5751
    -5.5135  -5.4923  -5.4151  -5.3501  -5.2234  -5.1669  -5.0617  -4.9874
     1.5004   1.7554   1.7989   2.0527   2.1285   2.3027   5.5701   5.8465
     5.8661   6.0066   6.1951   6.2407   6.3179   6.3627   6.3852   6.5608
     6.6012   6.6643   6.7880   6.8339   7.0757   7.1021   7.1743   7.2928
     7.3387   7.4677   7.5534   7.5924   7.7341   7.8387   7.8584   7.9713
     8.0264   8.1735   8.2121   8.3292   8.3493   8.3616   8.4917   8.5574
     8.7184   8.7901   8.8769   8.9927   9.0309   9.1125   9.1467   9.2310
     9.2579   9.3593   9.4295   9.5253   9.6311   9.7303   9.8130   9.8373
     9.8601   9.9497   9.9797  10.0889  10.1630  10.2568  10.2948  10.5036
    10.6999  10.7662  10.9809  11.0661  11.1720  11.3558  11.5377  11.8463
    11.8751  11.9464  12.5681  12.8775  13.0056  13.0809  13.1623  13.2039
    13.2870  13.3313  13.4953  13.6149  14.2330  14.2805  14.4863  14.7676
    14.8189  15.1938  15.3835  15.6788  15.7465  15.8629  15.9451  16.0028
    16.1066  16.1521  16.2411  16.9713  17.1257  17.2509  17.3203  17.3909
    17.4694  17.5312  17.6154  17.6919  21.3757  21.5802  21.8663  22.2676
    22.4410  22.5460  22.9172  22.9740  23.0533  23.1908  23.3104  23.3406
    23.4240  23.4595  23.9397  23.9661  24.1501  24.1791  24.3192  24.4298

     occupation numbers 
     1.0000   1.0000   1.0000   1.0000   1.0000   1.0000   1.0000   1.0000
     1.0000   1.0000   1.0000   1.0000   1.0000   1.0000   1.0000   1.0000
     1.0000   1.0000   1.0000   1.0000   1.0000   1.0000   1.0000   1.0000
     1.0000   1.0000   1.0000   1.0000   1.0000   1.0000   1.0000   1.0000
     1.0000   1.0000   1.0000   1.0000   1.0000   1.0000   1.0000   1.0000
     1.0000   1.0000   1.0000   1.0000   1.0000   1.0000   1.0000   1.0000
     1.0000   1.0000   1.0000   1.0000   1.0000   1.0000   1.0000   1.0000
     1.0000   1.0000   1.0000   1.0000   1.0000   1.0000   1.0000   1.0000
     1.0000   1.0000   1.0000   1.0000   1.0000   1.0000   1.0000   1.0000
     1.0000   1.0000   1.0000   1.0000   1.0000   1.0000   1.0000   1.0000
     1.0000   1.0000   1.0000   1.0000   1.0000   1.0000   1.0000   1.0000
     1.0000   1.0000   1.0000   1.0000   1.0000   1.0000   1.0000   1.0000
     1.0000   1.0000   1.0000   1.0000   1.0000   1.0000   1.0000   1.0000
     1.0000   1.0000   1.0000   1.0000   1.0000   1.0000   1.0000   1.0000
     1.0000   1.0000   1.0000   1.0000   1.0000   1.0000   1.0000   1.0000
     1.0000   1.0000   1.0000   1.0000   1.0000   1.0000   1.0000   1.0000
     1.0000   1.0000   1.0000   1.0000   1.0000   1.0000   1.0000   1.0000
     1.0000   1.0000   1.0000   1.0000   1.0000   1.0000   1.0000   1.0000
     1.0000   1.0000   1.0302   0.0018  -0.0154  -0.0024  -0.0001  -0.0000
    -0.0000  -0.0000  -0.0000  -0.0000  -0.0000  -0.0000  -0.0000  -0.0000
    -0.0000  -0.0000  -0.0000  -0.0000  -0.0000  -0.0000  -0.0000  -0.0000
    -0.0000  -0.0000  -0.0000  -0.0000  -0.0000  -0.0000  -0.0000  -0.0000
    -0.0000  -0.0000  -0.0000  -0.0000  -0.0000  -0.0000  -0.0000  -0.0000
    -0.0000  -0.0000  -0.0000  -0.0000  -0.0000  -0.0000  -0.0000  -0.0000
    -0.0000  -0.0000  -0.0000  -0.0000  -0.0000  -0.0000  -0.0000  -0.0000

     the Fermi energy is    12.7640 ev

!    total energy              =   -3195.25503661 Ry
     estimated scf accuracy    <       0.00000008 Ry
     smearing contrib. (-TS)   =       0.00276535 Ry
     internal energy E=F+TS    =   -3195.25780196 Ry

     The total energy is F=E-TS. E is the sum of the following terms:
     one-electron contribution =   -1267.58221586 Ry
     hartree contribution      =     826.66525175 Ry
     xc contribution           =    -695.64193446 Ry
     ewald contribution        =   -2058.48132819 Ry
     Hubbard energy            =      -0.21757521 Ry

     total magnetization       =     0.00 Bohr mag/cell
     absolute magnetization    =    27.21 Bohr mag/cell

     convergence has been achieved in  12 iterations

     Writing output data file /home/aldair1809/Documentos/QE/4BFO/hubbard_pbe_mp/lr_-0.08/bifeo3-Uhubbard.save/

     init_run     :      5.62s CPU      5.84s WALL (       1 calls)
     electrons    :   1329.48s CPU   1359.06s WALL (       1 calls)

     Called by init_run:
     wfcinit      :      4.45s CPU      4.52s WALL (       1 calls)
     potinit      :      0.06s CPU      0.07s WALL (       1 calls)
     hinit0       :      0.50s CPU      0.51s WALL (       1 calls)

     Called by electrons:
     c_bands      :   1236.07s CPU   1258.23s WALL (      12 calls)
     sum_band     :     82.62s CPU     87.39s WALL (      12 calls)
     v_of_rho     :      1.50s CPU      1.61s WALL (      13 calls)
     v_h          :      0.04s CPU      0.05s WALL (      13 calls)
     v_xc         :      1.46s CPU      1.56s WALL (      13 calls)
     newd         :      9.38s CPU     11.93s WALL (      13 calls)
     mix_rho      :      0.34s CPU      0.35s WALL (      12 calls)

     Called by c_bands:
     init_us_2    :      1.15s CPU      1.20s WALL (     100 calls)
     ccgdiagg     :    993.20s CPU   1011.31s WALL (      52 calls)
     wfcrot       :    241.85s CPU    245.86s WALL (      48 calls)

     Called by sum_band:
     sum_band:wei :      0.03s CPU      0.03s WALL (      12 calls)
     sum_band:loo :     64.94s CPU     66.92s WALL (      12 calls)
     sum_band:buf :      0.20s CPU      0.21s WALL (      48 calls)
     sum_band:ini :      0.56s CPU      0.57s WALL (      48 calls)
     sum_band:cal :     49.04s CPU     49.95s WALL (      48 calls)
     sum_band:bec :      0.29s CPU      0.30s WALL (      48 calls)
     addusdens    :     13.83s CPU     16.52s WALL (      12 calls)
     addusd:skk   :      0.06s CPU      0.06s WALL (      48 calls)
     addusd:dgemm :      7.13s CPU      9.28s WALL (      96 calls)
     addusd:qvan2 :      6.48s CPU      6.60s WALL (      96 calls)

     Called by *cgdiagg:
     h_psi        :    555.24s CPU    569.34s WALL (   35536 calls)
     s_psi        :    363.97s CPU    367.40s WALL (   71028 calls)

     Called by h_psi:
     h_psi:calbec :    201.75s CPU    206.13s WALL (   35536 calls)
     vloc_psi     :    110.61s CPU    117.73s WALL (   35536 calls)
     add_vuspsi   :    207.21s CPU    209.11s WALL (   35536 calls)
     vhpsi        :     34.41s CPU     35.18s WALL (   35536 calls)
     hs_1psi      :    580.82s CPU    593.29s WALL (   35488 calls)
     s_1psi       :    307.11s CPU    311.02s WALL (   35488 calls)

     General routines
     calbec       :    427.22s CPU    435.80s WALL (  106660 calls)
     fft          :      0.62s CPU      0.71s WALL (     271 calls)
     ffts         :      0.07s CPU      0.08s WALL (      24 calls)
     fftw         :    107.52s CPU    114.87s WALL (   99776 calls)
     davcio       :      0.00s CPU      0.08s WALL (       4 calls)

     Parallel routines
     fft_scatt_xy :     17.47s CPU     18.87s WALL (  100071 calls)
     fft_scatt_yz :     20.88s CPU     23.39s WALL (  100071 calls)

     Hubbard U routines
     new_ns       :      3.32s CPU      3.38s WALL (      12 calls)
     new_ns       :      3.32s CPU      3.38s WALL (      12 calls)
     vhpsi        :     34.41s CPU     35.18s WALL (   35536 calls)

     PWSCF        :  22m15.64s CPU  22m45.94s WALL


   This run was terminated on:  21:15:42  26Oct2024            

=------------------------------------------------------------------------------=
   JOB DONE.
=------------------------------------------------------------------------------=
