
     Program PWSCF v.6.7MaX starts on 26Oct2024 at 23:29:49 

     This program is part of the open-source Quantum ESPRESSO suite
     for quantum simulation of materials; please cite
         "P. Giannozzi et al., J. Phys.:Condens. Matter 21 395502 (2009);
         "P. Giannozzi et al., J. Phys.:Condens. Matter 29 465901 (2017);
          URL http://www.quantum-espresso.org", 
     in publications or presentations arising from this work. More details at
     http://www.quantum-espresso.org/quote

     Parallel version (MPI), running on     4 processors

     MPI processes distributed on     1 nodes
     R & G space division:  proc/nbgrp/npool/nimage =       4
     Waiting for input...
     Reading input from standard input

     Current dimensions of program PWSCF are:
     Max number of different atomic species (ntypx) = 10
     Max number of k-points (npk) =  40000
     Max angular momentum in pseudopotentials (lmaxx) =  3

     Subspace diagonalization in iterative solution of the eigenvalue problem:
     one sub-group per band group will be used
     scalapack distributed-memory algorithm (size of sub-group:  2*  2 procs)


     Parallelization info
     --------------------
     sticks:   dense  smooth     PW     G-vecs:    dense   smooth      PW
     Min         261     261     74                17069    17069    2544
     Max         262     262     76                17072    17072    2546
     Sum        1045    1045    301                68281    68281   10179



     bravais-lattice index     =            4
     lattice parameter (alat)  =      10.4531  a.u.
     unit-cell volume          =    2440.6662 (a.u.)^3
     number of atoms/cell      =           30
     number of atomic types    =            4
     number of electrons       =       294.00
     number of Kohn-Sham states=          200
     kinetic-energy cutoff     =      35.0000  Ry
     charge density cutoff     =     140.0000  Ry
     scf convergence threshold =      1.0E-07
     mixing beta               =       0.4000
     number of iterations used =            8  plain     mixing
     Exchange-correlation=  SLA  PW   PBX  PBC
                           (   1   4   3   4   0   0   0)

     celldm(1)=  10.453102  celldm(2)=   0.000000  celldm(3)=   2.467415
     celldm(4)=   0.000000  celldm(5)=   0.000000  celldm(6)=   0.000000

     crystal axes: (cart. coord. in units of alat)
               a(1) = (   1.000000   0.000000   0.000000 )  
               a(2) = (  -0.500000   0.866025   0.000000 )  
               a(3) = (   0.000000   0.000000   2.467415 )  

     reciprocal axes: (cart. coord. in units 2 pi/alat)
               b(1) = (  1.000000  0.577350 -0.000000 )  
               b(2) = (  0.000000  1.154701  0.000000 )  
               b(3) = (  0.000000 -0.000000  0.405282 )  


     PseudoPot. # 1 for O  read from file:
     /home/aldair1809/Programas/QE/q-e-qe-7.3/pseudo/o_pbe_v1.2.uspp.F.UPF
     MD5 check sum: 734c27235a0248c51dbae37a1fbe46ec
     Pseudo is Ultrasoft + core correction, Zval =  6.0
     Generated by new atomic code, or converted to UPF format
     Using radial grid of  737 points,  5 beta functions with: 
                l(1) =   0
                l(2) =   0
                l(3) =   1
                l(4) =   1
                l(5) =   2
     Q(r) pseudized with  8 coefficients,  rinner =    0.900   0.900   0.900
                                                       0.900   0.900

     PseudoPot. # 2 for Bi read from file:
     /home/aldair1809/Programas/QE/q-e-qe-7.3/pseudo/bi_pbe_v1.uspp.F.UPF
     MD5 check sum: cceb9f28ec65b6d7ff33140f5b0b1758
     Pseudo is Ultrasoft + core correction, Zval = 15.0
     Generated by new atomic code, or converted to UPF format
     Using radial grid of  899 points,  6 beta functions with: 
                l(1) =   0
                l(2) =   0
                l(3) =   1
                l(4) =   1
                l(5) =   2
                l(6) =   2
     Q(r) pseudized with  6 coefficients,  rinner =    1.000   1.000   1.000
                                                       1.000   1.000

     PseudoPot. # 3 for Fe read from file:
     /home/aldair1809/Programas/QE/q-e-qe-7.3/pseudo/fe_pbe_v1.5.uspp.F.UPF
     MD5 check sum: a130daea23fe5165f5d574ae7f82ed95
     Pseudo is Ultrasoft + core correction, Zval = 16.0
     Generated by new atomic code, or converted to UPF format
     Using radial grid of  861 points,  6 beta functions with: 
                l(1) =   0
                l(2) =   0
                l(3) =   1
                l(4) =   1
                l(5) =   2
                l(6) =   2
     Q(r) pseudized with  8 coefficients,  rinner =    1.000   1.000   1.000
                                                       1.000   1.000

     PseudoPot. # 4 for Fe read from file:
     /home/aldair1809/Programas/QE/q-e-qe-7.3/pseudo/fe_pbe_v1.5.uspp.F.UPF
     MD5 check sum: a130daea23fe5165f5d574ae7f82ed95
     Pseudo is Ultrasoft + core correction, Zval = 16.0
     Generated by new atomic code, or converted to UPF format
     Using radial grid of  861 points,  6 beta functions with: 
                l(1) =   0
                l(2) =   0
                l(3) =   1
                l(4) =   1
                l(5) =   2
                l(6) =   2
     Q(r) pseudized with  8 coefficients,  rinner =    1.000   1.000   1.000
                                                       1.000   1.000

     atomic species   valence    mass     pseudopotential
        O              6.00    15.99940     O ( 1.00)
        Bi            15.00   208.98040     Bi( 1.00)
        Fe1           16.00    55.84500     Fe( 1.00)
        Fe2           16.00    55.84500     Fe( 1.00)

     Starting magnetic structure 
     atomic species   magnetization
        O            0.000
        Bi           0.000
        Fe1         -0.800
        Fe2          0.800


     Simplified LDA+U calculation (l_max = 2) with parameters (eV):
     atomic species    L          U    alpha       J0     beta
        Fe1            2     0.0000   0.0800   0.0000   0.0000
        Fe2            2     0.0000   0.0800   0.0000   0.0000



      3 Sym. Ops. (no inversion) found


                                    s                        frac. trans.

      isym =  1     identity                                     

 cryst.   s( 1) = (     1          0          0      )
                  (     0          1          0      )
                  (     0          0          1      )

 cart.    s( 1) = (  1.0000000  0.0000000  0.0000000 )
                  (  0.0000000  1.0000000  0.0000000 )
                  (  0.0000000  0.0000000  1.0000000 )


      isym =  2     120 deg rotation - cryst. axis [0,0,1]       

 cryst.   s( 2) = (     0          1          0      )
                  (    -1         -1          0      )
                  (     0          0          1      )

 cart.    s( 2) = ( -0.5000000 -0.8660254  0.0000000 )
                  (  0.8660254 -0.5000000  0.0000000 )
                  (  0.0000000  0.0000000  1.0000000 )


      isym =  3     120 deg rotation - cryst. axis [0,0,-1]      

 cryst.   s( 3) = (    -1         -1          0      )
                  (     1          0          0      )
                  (     0          0          1      )

 cart.    s( 3) = ( -0.5000000  0.8660254  0.0000000 )
                  ( -0.8660254 -0.5000000  0.0000000 )
                  (  0.0000000  0.0000000  1.0000000 )


     point group C_3 (3)    
     there are  3 classes
     the character table:

       E     C3    C3^2 
A      1.00  1.00  1.00
E      1.00 -0.50 -0.50
E*     1.00 -0.50 -0.50
     imaginary part
A      0.00  0.00  0.00
E      0.00  0.87 -0.87
E*     0.00 -0.87  0.87

     the symmetry operations in each class and the name of the first element:

     E        1
          identity                                               
     C3       2
          120 deg rotation - cryst. axis [0,0,1]                 
     C3^2     3
          120 deg rotation - cryst. axis [0,0,-1]                

   Cartesian axes

     site n.     atom                  positions (alat units)
         1           Fe1 tau(   1) = (   0.0000000   0.0000000   1.9173194  )
         2           Fe1 tau(   2) = (  -0.0000005   0.5773506   2.3408318  )
         3           Fe1 tau(   3) = (   0.5000005   0.2886748   1.4987656  )
         4           Fe2 tau(   4) = (   0.5000005   0.2886748   0.2650306  )
         5           Fe2 tau(   5) = (   0.0000000   0.0000000   0.6836385  )
         6           Fe2 tau(   6) = (  -0.0000005   0.5773506   1.1071829  )
         7           Bi  tau(   7) = (   0.5000005   0.2886748   2.0704508  )
         8           Bi  tau(   8) = (  -0.0000005   0.5773506   1.6683657  )
         9           Bi  tau(   9) = (  -0.0000005   0.5773506   0.4345959  )
        10           Bi  tau(  10) = (   0.0000000   0.0000000   0.0112133  )
        11           Bi  tau(  11) = (   0.0000000   0.0000000   1.2449306  )
        12           Bi  tau(  12) = (   0.5000005   0.2886748   0.8366940  )
        13           O   tau(  13) = (  -0.3015234   0.6617768   2.1713309  )
        14           O   tau(  14) = (   0.0776467   0.2740092   2.1713309  )
        15           O   tau(  15) = (   0.2238783   0.7962639   2.1713309  )
        16           O   tau(  16) = (   0.4195843   0.5622547   1.7587968  )
        17           O   tau(  17) = (   0.3032805   0.0822442   1.7587968  )
        18           O   tau(  18) = (   0.7771337   0.2215274   1.7587968  )
        19           O   tau(  19) = (   0.6967279   0.0822438   0.5250654  )
        20           O   tau(  20) = (   0.5804103   0.5622631   0.5250654  )
        21           O   tau(  21) = (   0.2228602   0.2215194   0.5250654  )
        22           O   tau(  22) = (  -0.0757596   0.8510068   0.1130324  )
        23           O   tau(  23) = (  -0.1991137   0.3749123   0.1130324  )
        24           O   tau(  24) = (   0.2748733   0.5061317   0.1130324  )
        25           O   tau(  25) = (   0.1991050   0.3749017   1.3467955  )
        26           O   tau(  26) = (   0.0757731   0.8510045   1.3467955  )
        27           O   tau(  27) = (  -0.2748781   0.5061446   1.3467955  )
        28           O   tau(  28) = (  -0.0776631   0.2740052   0.9376559  )
        29           O   tau(  29) = (   0.3015366   0.6617637   0.9376559  )
        30           O   tau(  30) = (  -0.2238720   0.7962811   0.9376559  )

   Crystallographic axes

     site n.     atom                  positions (cryst. coord.)
         1           Fe1 tau(   1) = (  0.0000000  0.0000000  0.7770559  )
         2           Fe1 tau(   2) = (  0.3333330  0.6666670  0.9486980  )
         3           Fe1 tau(   3) = (  0.6666670  0.3333330  0.6074234  )
         4           Fe2 tau(   4) = (  0.6666670  0.3333330  0.1074122  )
         5           Fe2 tau(   5) = (  0.0000000  0.0000000  0.2770667  )
         6           Fe2 tau(   6) = (  0.3333330  0.6666670  0.4487218  )
         7           Bi  tau(   7) = (  0.6666670  0.3333330  0.8391174  )
         8           Bi  tau(   8) = (  0.3333330  0.6666670  0.6761593  )
         9           Bi  tau(   9) = (  0.3333330  0.6666670  0.1761341  )
        10           Bi  tau(  10) = (  0.0000000  0.0000000  0.0045446  )
        11           Bi  tau(  11) = (  0.0000000  0.0000000  0.5045485  )
        12           Bi  tau(  12) = (  0.6666670  0.3333330  0.3390974  )
        13           O   tau(  13) = (  0.0805536  0.7641541  0.8800023  )
        14           O   tau(  14) = (  0.2358459  0.3163985  0.8800023  )
        15           O   tau(  15) = (  0.6836015  0.9194464  0.8800023  )
        16           O   tau(  16) = (  0.7442022  0.6492358  0.7128095  )
        17           O   tau(  17) = (  0.3507642  0.0949674  0.7128095  )
        18           O   tau(  18) = (  0.9050326  0.2557978  0.7128095  )
        19           O   tau(  19) = (  0.7442114  0.0949669  0.2127998  )
        20           O   tau(  20) = (  0.9050331  0.6492455  0.2127998  )
        21           O   tau(  21) = (  0.3507545  0.2557886  0.2127998  )
        22           O   tau(  22) = (  0.4155694  0.9826580  0.0458101  )
        23           O   tau(  23) = (  0.0173420  0.4329115  0.0458101  )
        24           O   tau(  24) = (  0.5670885  0.5844306  0.0458101  )
        25           O   tau(  25) = (  0.4155546  0.4328992  0.5458326  )
        26           O   tau(  26) = (  0.5671008  0.9826554  0.5458326  )
        27           O   tau(  27) = (  0.0173446  0.5844454  0.5458326  )
        28           O   tau(  28) = (  0.0805338  0.3163939  0.3800155  )
        29           O   tau(  29) = (  0.6836061  0.7641389  0.3800155  )
        30           O   tau(  30) = (  0.2358611  0.9194662  0.3800155  )

     number of k points=     2  Methfessel-Paxton smearing, width (Ry)=  0.0100
                       cart. coord. in units 2pi/alat
        k(    1) = (   0.0000000   0.0000000   0.0000000), wk =   0.2500000
        k(    2) = (   0.0000000  -0.5773503   0.0000000), wk =   0.7500000

                       cryst. coord.
        k(    1) = (   0.0000000   0.0000000   0.0000000), wk =   0.2500000
        k(    2) = (   0.0000000  -0.5000000   0.0000000), wk =   0.7500000

     Dense  grid:    68281 G-vectors     FFT dimensions: (  40,  40, 100)

     Dynamical RAM for                 wfc:       6.51 MB

     Dynamical RAM for     wfc (w. buffer):      32.55 MB

     Dynamical RAM for             U proj.:       0.98 MB

     Dynamical RAM for  U proj. (w. buff.):       4.88 MB

     Dynamical RAM for           str. fact:       1.04 MB

     Dynamical RAM for           local pot:       0.00 MB

     Dynamical RAM for          nlocal pot:      14.65 MB

     Dynamical RAM for                qrad:       3.80 MB

     Dynamical RAM for          rho,v,vnew:       3.39 MB

     Dynamical RAM for               rhoin:       1.13 MB

     Dynamical RAM for            rho*nmix:       8.34 MB

     Dynamical RAM for           G-vectors:       1.11 MB

     Dynamical RAM for          h,s,v(r/c):       0.46 MB

     Dynamical RAM for          <psi|beta>:       1.37 MB

     Dynamical RAM for      wfcinit/wfcrot:      13.94 MB

     Dynamical RAM for           addusdens:      53.40 MB

     Estimated static dynamical RAM per process >      74.02 MB

     Estimated max dynamical RAM per process >     127.42 MB

     Estimated total dynamical RAM >     509.70 MB

     Atomic positions and unit cell read from directory:
     /home/aldair1809/Documentos/QE/4BFO/hubbard_pbe_mp/lr_0.08/bifeo3-Uhubbard.save/


     Check: negative core charge=   -0.000081
     Generating pointlists ...
     new r_m :   0.1435 (alat units)  1.5003 (a.u.) for type    1
     new r_m :   0.1728 (alat units)  1.8065 (a.u.) for type    2
     new r_m :   0.1435 (alat units)  1.5003 (a.u.) for type    3
     new r_m :   0.1435 (alat units)  1.5003 (a.u.) for type    4

     The initial density is read from file :
     /home/aldair1809/Documentos/QE/4BFO/hubbard_pbe_mp/lr_0.08/bifeo3-Uhubbard.save/charge-density


     negative rho (up, down):  1.235E-01 1.235E-01
 --- in v_hubbard ---
Hubbard energy    0.2171
 -------
     Number of +U iterations with fixed ns =  0
     Starting occupations:
 --- enter write_ns ---
 LDA+U parameters:
alpha( 3) =  0.08000000
alpha( 4) =  0.08000000
atom    1   Tr[ns(na)] (up, down, total) =   1.14843  4.96207  6.11051
   spin  1
    eigenvalues: 
  0.167  0.174  0.174  0.317  0.317
    eigenvectors:
  1.000  0.000  0.000  0.000  0.000
  0.000  0.081  0.306  0.026  0.587
  0.000  0.306  0.081  0.587  0.026
  0.000  0.165  0.448  0.205  0.182
  0.000  0.448  0.165  0.182  0.205
    occupations:
  0.167 -0.000 -0.000 -0.000 -0.000
 -0.000  0.261 -0.000  0.036  0.059
 -0.000 -0.000  0.261  0.059 -0.036
 -0.000  0.036  0.059  0.229  0.000
 -0.000  0.059 -0.036  0.000  0.229
   spin  2
    eigenvalues: 
  0.990  0.990  0.993  0.994  0.994
    eigenvectors:
  0.000  0.000  1.000  0.000  0.000
  0.040  0.302  0.000  0.045  0.613
  0.302  0.040  0.000  0.613  0.045
  0.223  0.434  0.000  0.145  0.198
  0.434  0.223  0.000  0.198  0.145
    occupations:
  0.993 -0.000 -0.000 -0.000 -0.000
 -0.000  0.993 -0.000 -0.001 -0.002
 -0.000 -0.000  0.993 -0.002  0.001
 -0.000 -0.001 -0.002  0.992  0.000
 -0.000 -0.002  0.001  0.000  0.992
atomic mag. moment =  -3.81364
atom    2   Tr[ns(na)] (up, down, total) =   1.25263  4.91386  6.16649
   spin  1
    eigenvalues: 
  0.179  0.193  0.193  0.344  0.344
    eigenvectors:
  1.000  0.000  0.000  0.000  0.000
  0.000  0.191  0.073  0.239  0.497
  0.000  0.073  0.191  0.497  0.239
  0.000  0.103  0.632  0.000  0.264
  0.000  0.632  0.103  0.264  0.000
    occupations:
  0.179 -0.000 -0.000 -0.000 -0.000
 -0.000  0.304 -0.000 -0.054  0.039
 -0.000 -0.000  0.304  0.039  0.054
 -0.000 -0.054  0.039  0.233  0.000
 -0.000  0.039  0.054  0.000  0.233
   spin  2
    eigenvalues: 
  0.969  0.969  0.991  0.992  0.992
    eigenvectors:
  0.000  0.000  1.000  0.000  0.000
  0.478  0.173  0.000  0.299  0.049
  0.173  0.478  0.000  0.049  0.299
  0.004  0.344  0.000  0.044  0.608
  0.344  0.004  0.000  0.608  0.044
    occupations:
  0.991 -0.000 -0.000 -0.000 -0.000
 -0.000  0.977 -0.000  0.007 -0.009
 -0.000 -0.000  0.977 -0.009 -0.007
 -0.000  0.007 -0.009  0.984  0.000
 -0.000 -0.009 -0.007  0.000  0.984
atomic mag. moment =  -3.66122
atom    3   Tr[ns(na)] (up, down, total) =   1.26880  4.91890  6.18770
   spin  1
    eigenvalues: 
  0.198  0.198  0.208  0.332  0.332
    eigenvectors:
  0.000  0.000  1.000  0.000  0.000
  0.362  0.241  0.000  0.294  0.104
  0.241  0.362  0.000  0.104  0.294
  0.024  0.374  0.000  0.088  0.514
  0.374  0.024  0.000  0.514  0.088
    occupations:
  0.208 -0.000 -0.000 -0.000 -0.000
 -0.000  0.251 -0.000 -0.053  0.039
 -0.000 -0.000  0.251  0.039  0.053
 -0.000 -0.053  0.039  0.279  0.000
 -0.000  0.039  0.053  0.000  0.279
   spin  2
    eigenvalues: 
  0.973  0.973  0.990  0.991  0.991
    eigenvectors:
  0.000  0.000  1.000  0.000  0.000
  0.456  0.089  0.000  0.340  0.114
  0.089  0.456  0.000  0.114  0.340
  0.044  0.411  0.000  0.023  0.523
  0.411  0.044  0.000  0.523  0.023
    occupations:
  0.990 -0.000 -0.000 -0.000 -0.000
 -0.000  0.981 -0.000  0.006 -0.007
 -0.000 -0.000  0.981 -0.007 -0.006
 -0.000  0.006 -0.007  0.983  0.000
 -0.000 -0.007 -0.006  0.000  0.983
atomic mag. moment =  -3.65010
atom    4   Tr[ns(na)] (up, down, total) =   4.91906  1.27035  6.18941
   spin  1
    eigenvalues: 
  0.973  0.973  0.990  0.991  0.991
    eigenvectors:
  0.000  0.000  1.000  0.000  0.000
  0.010  0.535  0.000  0.050  0.404
  0.535  0.010  0.000  0.404  0.050
  0.190  0.265  0.000  0.126  0.419
  0.265  0.190  0.000  0.419  0.126
    occupations:
  0.990 -0.000 -0.000 -0.000 -0.000
 -0.000  0.981 -0.000 -0.006 -0.007
 -0.000 -0.000  0.981 -0.007  0.006
 -0.000 -0.006 -0.007  0.983  0.000
 -0.000 -0.007  0.006  0.000  0.983
   spin  2
    eigenvalues: 
  0.199  0.199  0.209  0.332  0.332
    eigenvectors:
  0.000  0.000  1.000  0.000  0.000
  0.001  0.602  0.000  0.001  0.396
  0.602  0.001  0.000  0.396  0.001
  0.157  0.240  0.000  0.182  0.421
  0.240  0.157  0.000  0.421  0.182
    occupations:
  0.209 -0.000 -0.000 -0.000 -0.000
 -0.000  0.252 -0.000  0.053  0.039
 -0.000 -0.000  0.252  0.039 -0.053
 -0.000  0.053  0.039  0.279  0.000
 -0.000  0.039 -0.053  0.000  0.279
atomic mag. moment =   3.64872
atom    5   Tr[ns(na)] (up, down, total) =   4.96210  1.14660  6.10870
   spin  1
    eigenvalues: 
  0.990  0.990  0.993  0.994  0.994
    eigenvectors:
  0.000  0.000  1.000  0.000  0.000
  0.336  0.005  0.000  0.440  0.219
  0.005  0.336  0.000  0.219  0.440
  0.141  0.518  0.000  0.000  0.341
  0.518  0.141  0.000  0.341  0.000
    occupations:
  0.993 -0.000 -0.000 -0.000 -0.000
 -0.000  0.993 -0.000  0.001 -0.002
 -0.000 -0.000  0.993 -0.002 -0.001
 -0.000  0.001 -0.002  0.992  0.000
 -0.000 -0.002 -0.001  0.000  0.992
   spin  2
    eigenvalues: 
  0.166  0.173  0.173  0.317  0.317
    eigenvectors:
  1.000  0.000  0.000  0.000  0.000
  0.000  0.366  0.020  0.587  0.026
  0.000  0.020  0.366  0.026  0.587
  0.000  0.060  0.553  0.043  0.343
  0.000  0.553  0.060  0.343  0.043
    occupations:
  0.166 -0.000 -0.000 -0.000 -0.000
 -0.000  0.261 -0.000 -0.036  0.060
 -0.000 -0.000  0.261  0.060  0.036
 -0.000 -0.036  0.060  0.229  0.000
 -0.000  0.060  0.036  0.000  0.229
atomic mag. moment =   3.81550
atom    6   Tr[ns(na)] (up, down, total) =   4.91400  1.25157  6.16557
   spin  1
    eigenvalues: 
  0.969  0.969  0.991  0.992  0.992
    eigenvectors:
  0.000  0.000  1.000  0.000  0.000
  0.009  0.642  0.000  0.071  0.277
  0.642  0.009  0.000  0.277  0.071
  0.180  0.168  0.000  0.125  0.527
  0.168  0.180  0.000  0.527  0.125
    occupations:
  0.991 -0.000 -0.000 -0.000 -0.000
 -0.000  0.977 -0.000 -0.007 -0.009
 -0.000 -0.000  0.977 -0.009  0.007
 -0.000 -0.007 -0.009  0.984  0.000
 -0.000 -0.009  0.007  0.000  0.984
   spin  2
    eigenvalues: 
  0.179  0.193  0.193  0.344  0.344
    eigenvectors:
  1.000  0.000  0.000  0.000  0.000
  0.000  0.004  0.260  0.005  0.730
  0.000  0.260  0.004  0.730  0.005
  0.000  0.172  0.563  0.114  0.151
  0.000  0.563  0.172  0.151  0.114
    occupations:
  0.179 -0.000 -0.000 -0.000 -0.000
 -0.000  0.304 -0.000  0.054  0.039
 -0.000 -0.000  0.304  0.039 -0.054
 -0.000  0.054  0.039  0.233  0.000
 -0.000  0.039 -0.054  0.000  0.233
atomic mag. moment =   3.66242
N of occupied +U levels =   36.928377
 --- exit write_ns ---
 Atomic wfc used for LDA+U Projector are NOT orthogonalized
     Starting wfcs from file

     total cpu time spent up to now is       16.5 secs

     Self-consistent Calculation

     iteration #  1     ecut=    35.00 Ry     beta= 0.40
     CG style diagonalization
     c_bands:  2 eigenvalues not converged
     c_bands:  1 eigenvalues not converged
     c_bands:  2 eigenvalues not converged
     ethr =  1.00E-09,  avg # of iterations = 22.9
 --- enter write_ns ---
 LDA+U parameters:
alpha( 3) =  0.08000000
alpha( 4) =  0.08000000
atom    1   Tr[ns(na)] (up, down, total) =   1.10694  4.96169  6.06863
   spin  1
    eigenvalues: 
  0.157  0.165  0.165  0.310  0.310
    eigenvectors:
  1.000  0.000  0.000  0.000  0.000
  0.000  0.075  0.315  0.023  0.587
  0.000  0.315  0.075  0.587  0.023
  0.000  0.166  0.444  0.203  0.187
  0.000  0.444  0.166  0.187  0.203
    occupations:
  0.157 -0.000 -0.000 -0.000 -0.000
 -0.000  0.254 -0.000  0.038  0.060
 -0.000 -0.000  0.254  0.060 -0.038
 -0.000  0.038  0.060  0.222  0.000
 -0.000  0.060 -0.038  0.000  0.222
   spin  2
    eigenvalues: 
  0.990  0.990  0.993  0.994  0.994
    eigenvectors:
  0.000  0.000  1.000  0.000  0.000
  0.044  0.298  0.000  0.050  0.608
  0.298  0.044  0.000  0.608  0.050
  0.225  0.433  0.000  0.146  0.196
  0.433  0.225  0.000  0.196  0.146
    occupations:
  0.993 -0.000 -0.000 -0.000 -0.000
 -0.000  0.993 -0.000 -0.001 -0.002
 -0.000 -0.000  0.993 -0.002  0.001
 -0.000 -0.001 -0.002  0.992  0.000
 -0.000 -0.002  0.001  0.000  0.992
atomic mag. moment =  -3.85475
atom    2   Tr[ns(na)] (up, down, total) =   1.21632  4.91619  6.13252
   spin  1
    eigenvalues: 
  0.172  0.184  0.184  0.338  0.338
    eigenvectors:
  1.000  0.000  0.000  0.000  0.000
  0.000  0.200  0.072  0.250  0.478
  0.000  0.072  0.200  0.478  0.250
  0.000  0.100  0.629  0.000  0.272
  0.000  0.629  0.100  0.272  0.000
    occupations:
  0.172 -0.000 -0.000 -0.000 -0.000
 -0.000  0.296 -0.000 -0.054  0.042
 -0.000 -0.000  0.296  0.042  0.054
 -0.000 -0.054  0.042  0.226  0.000
 -0.000  0.042  0.054  0.000  0.226
   spin  2
    eigenvalues: 
  0.970  0.970  0.991  0.992  0.992
    eigenvectors:
  0.000  0.000  1.000  0.000  0.000
  0.482  0.170  0.000  0.299  0.050
  0.170  0.482  0.000  0.050  0.299
  0.004  0.344  0.000  0.044  0.608
  0.344  0.004  0.000  0.608  0.044
    occupations:
  0.991 -0.000 -0.000 -0.000 -0.000
 -0.000  0.978 -0.000  0.006 -0.008
 -0.000 -0.000  0.978 -0.008 -0.006
 -0.000  0.006 -0.008  0.985  0.000
 -0.000 -0.008 -0.006  0.000  0.985
atomic mag. moment =  -3.69987
atom    3   Tr[ns(na)] (up, down, total) =   1.23916  4.92051  6.15967
   spin  1
    eigenvalues: 
  0.192  0.192  0.201  0.327  0.327
    eigenvectors:
  0.000  0.000  1.000  0.000  0.000
  0.363  0.230  0.000  0.302  0.105
  0.230  0.363  0.000  0.105  0.302
  0.025  0.382  0.000  0.085  0.508
  0.382  0.025  0.000  0.508  0.085
    occupations:
  0.201 -0.000 -0.000 -0.000 -0.000
 -0.000  0.247 -0.000 -0.053  0.040
 -0.000 -0.000  0.247  0.040  0.053
 -0.000 -0.053  0.040  0.272  0.000
 -0.000  0.040  0.053  0.000  0.272
   spin  2
    eigenvalues: 
  0.974  0.974  0.990  0.991  0.991
    eigenvectors:
  0.000  0.000  1.000  0.000  0.000
  0.454  0.088  0.000  0.341  0.118
  0.088  0.454  0.000  0.118  0.341
  0.045  0.413  0.000  0.022  0.519
  0.413  0.045  0.000  0.519  0.022
    occupations:
  0.990 -0.000 -0.000 -0.000 -0.000
 -0.000  0.982 -0.000  0.006 -0.006
 -0.000 -0.000  0.982 -0.006 -0.006
 -0.000  0.006 -0.006  0.983  0.000
 -0.000 -0.006 -0.006  0.000  0.983
atomic mag. moment =  -3.68134
atom    4   Tr[ns(na)] (up, down, total) =   4.91955  1.22952  6.14907
   spin  1
    eigenvalues: 
  0.974  0.974  0.990  0.991  0.991
    eigenvectors:
  0.000  0.000  1.000  0.000  0.000
  0.010  0.531  0.000  0.050  0.409
  0.531  0.010  0.000  0.409  0.050
  0.190  0.269  0.000  0.126  0.415
  0.269  0.190  0.000  0.415  0.126
    occupations:
  0.990 -0.000 -0.000 -0.000 -0.000
 -0.000  0.982 -0.000 -0.006 -0.006
 -0.000 -0.000  0.982 -0.006  0.006
 -0.000 -0.006 -0.006  0.983  0.000
 -0.000 -0.006  0.006  0.000  0.983
   spin  2
    eigenvalues: 
  0.190  0.190  0.199  0.326  0.326
    eigenvectors:
  0.000  0.000  1.000  0.000  0.000
  0.000  0.592  0.000  0.002  0.406
  0.592  0.000  0.000  0.406  0.002
  0.161  0.247  0.000  0.183  0.409
  0.247  0.161  0.000  0.409  0.183
    occupations:
  0.199 -0.000 -0.000 -0.000 -0.000
 -0.000  0.245 -0.000  0.053  0.041
 -0.000 -0.000  0.245  0.041 -0.053
 -0.000  0.053  0.041  0.270  0.000
 -0.000  0.041 -0.053  0.000  0.270
atomic mag. moment =   3.69003
atom    5   Tr[ns(na)] (up, down, total) =   4.96196  1.13248  6.09443
   spin  1
    eigenvalues: 
  0.990  0.990  0.993  0.994  0.994
    eigenvectors:
  0.000  0.000  1.000  0.000  0.000
  0.348  0.004  0.000  0.444  0.204
  0.004  0.348  0.000  0.204  0.444
  0.139  0.509  0.000  0.000  0.352
  0.509  0.139  0.000  0.352  0.000
    occupations:
  0.993 -0.000 -0.000 -0.000 -0.000
 -0.000  0.993 -0.000  0.001 -0.002
 -0.000 -0.000  0.993 -0.002 -0.001
 -0.000  0.001 -0.002  0.992  0.000
 -0.000 -0.002 -0.001  0.000  0.992
   spin  2
    eigenvalues: 
  0.169  0.170  0.170  0.312  0.312
    eigenvectors:
  1.000  0.000  0.000  0.000  0.000
  0.000  0.366  0.022  0.583  0.029
  0.000  0.022  0.366  0.029  0.583
  0.000  0.060  0.553  0.042  0.346
  0.000  0.553  0.060  0.346  0.042
    occupations:
  0.169 -0.000 -0.000 -0.000 -0.000
 -0.000  0.257 -0.000 -0.037  0.059
 -0.000 -0.000  0.257  0.059  0.037
 -0.000 -0.037  0.059  0.225  0.000
 -0.000  0.059  0.037  0.000  0.225
atomic mag. moment =   3.82948
atom    6   Tr[ns(na)] (up, down, total) =   4.91556  1.22778  6.14334
   spin  1
    eigenvalues: 
  0.970  0.970  0.991  0.992  0.992
    eigenvectors:
  0.000  0.000  1.000  0.000  0.000
  0.009  0.642  0.000  0.070  0.279
  0.642  0.009  0.000  0.279  0.070
  0.179  0.169  0.000  0.125  0.526
  0.169  0.179  0.000  0.526  0.125
    occupations:
  0.991 -0.000 -0.000 -0.000 -0.000
 -0.000  0.978 -0.000 -0.006 -0.008
 -0.000 -0.000  0.978 -0.008  0.006
 -0.000 -0.006 -0.008  0.985  0.000
 -0.000 -0.008  0.006  0.000  0.985
   spin  2
    eigenvalues: 
  0.173  0.188  0.188  0.339  0.339
    eigenvectors:
  1.000  0.000  0.000  0.000  0.000
  0.000  0.005  0.262  0.005  0.729
  0.000  0.262  0.005  0.729  0.005
  0.000  0.174  0.560  0.116  0.150
  0.000  0.560  0.174  0.150  0.116
    occupations:
  0.173 -0.000 -0.000 -0.000 -0.000
 -0.000  0.299 -0.000  0.053  0.040
 -0.000 -0.000  0.299  0.040 -0.053
 -0.000  0.053  0.040  0.228  0.000
 -0.000  0.040 -0.053  0.000  0.228
atomic mag. moment =   3.68779
N of occupied +U levels =   36.747659
 --- exit write_ns ---

     negative rho (up, down):  1.235E-01 1.235E-01
 --- in v_hubbard ---
Hubbard energy    0.2167
 -------

     total cpu time spent up to now is      834.2 secs

     total energy              =   -3194.81935432 Ry
     estimated scf accuracy    <       0.00329218 Ry

     total magnetization       =    -0.03 Bohr mag/cell
     absolute magnetization    =    27.41 Bohr mag/cell

     iteration #  2     ecut=    35.00 Ry     beta= 0.40
     CG style diagonalization
     ethr =  1.12E-06,  avg # of iterations =  3.4
 --- enter write_ns ---
 LDA+U parameters:
alpha( 3) =  0.08000000
alpha( 4) =  0.08000000
atom    1   Tr[ns(na)] (up, down, total) =   1.24035  4.96646  6.20682
   spin  1
    eigenvalues: 
  0.191  0.191  0.207  0.325  0.325
    eigenvectors:
  0.000  0.000  1.000  0.000  0.000
  0.096  0.278  0.000  0.032  0.593
  0.278  0.096  0.000  0.593  0.032
  0.168  0.458  0.000  0.210  0.164
  0.458  0.168  0.000  0.164  0.210
    occupations:
  0.207 -0.000 -0.000 -0.000 -0.000
 -0.000  0.275 -0.000  0.031  0.057
 -0.000 -0.000  0.275  0.057 -0.031
 -0.000  0.031  0.057  0.241  0.000
 -0.000  0.057 -0.031  0.000  0.241
   spin  2
    eigenvalues: 
  0.992  0.992  0.994  0.995  0.995
    eigenvectors:
  0.000  0.000  1.000  0.000  0.000
  0.052  0.261  0.000  0.044  0.643
  0.261  0.052  0.000  0.643  0.044
  0.229  0.458  0.000  0.155  0.158
  0.458  0.229  0.000  0.158  0.155
    occupations:
  0.994 -0.000 -0.000 -0.000 -0.000
 -0.000  0.994 -0.000 -0.001 -0.001
 -0.000 -0.000  0.994 -0.001  0.001
 -0.000 -0.001 -0.001  0.993  0.000
 -0.000 -0.001  0.001  0.000  0.993
atomic mag. moment =  -3.72611
atom    2   Tr[ns(na)] (up, down, total) =   1.29890  4.91733  6.21623
   spin  1
    eigenvalues: 
  0.186  0.207  0.207  0.349  0.349
    eigenvectors:
  1.000  0.000  0.000  0.000  0.000
  0.000  0.173  0.074  0.212  0.541
  0.000  0.074  0.173  0.541  0.212
  0.000  0.114  0.639  0.000  0.247
  0.000  0.639  0.114  0.247  0.000
    occupations:
  0.186 -0.000 -0.000 -0.000 -0.000
 -0.000  0.314 -0.000 -0.051  0.034
 -0.000 -0.000  0.314  0.034  0.051
 -0.000 -0.051  0.034  0.242  0.000
 -0.000  0.034  0.051  0.000  0.242
   spin  2
    eigenvalues: 
  0.970  0.970  0.991  0.993  0.993
    eigenvectors:
  0.000  0.000  1.000  0.000  0.000
  0.472  0.182  0.000  0.295  0.050
  0.182  0.472  0.000  0.050  0.295
  0.003  0.342  0.000  0.044  0.610
  0.342  0.003  0.000  0.610  0.044
    occupations:
  0.991 -0.000 -0.000 -0.000 -0.000
 -0.000  0.978 -0.000  0.007 -0.009
 -0.000 -0.000  0.978 -0.009 -0.007
 -0.000  0.007 -0.009  0.985  0.000
 -0.000 -0.009 -0.007  0.000  0.985
atomic mag. moment =  -3.61842
atom    3   Tr[ns(na)] (up, down, total) =   1.29287  4.92525  6.21812
   spin  1
    eigenvalues: 
  0.203  0.203  0.215  0.336  0.336
    eigenvectors:
  0.000  0.000  1.000  0.000  0.000
  0.370  0.246  0.000  0.290  0.094
  0.246  0.370  0.000  0.094  0.290
  0.021  0.363  0.000  0.095  0.521
  0.363  0.021  0.000  0.521  0.095
    occupations:
  0.215 -0.000 -0.000 -0.000 -0.000
 -0.000  0.254 -0.000 -0.051  0.039
 -0.000 -0.000  0.254  0.039  0.051
 -0.000 -0.051  0.039  0.285  0.000
 -0.000  0.039  0.051  0.000  0.285
   spin  2
    eigenvalues: 
  0.976  0.976  0.991  0.992  0.992
    eigenvectors:
  0.000  0.000  1.000  0.000  0.000
  0.449  0.083  0.000  0.345  0.123
  0.083  0.449  0.000  0.123  0.345
  0.048  0.419  0.000  0.020  0.512
  0.419  0.048  0.000  0.512  0.020
    occupations:
  0.991 -0.000 -0.000 -0.000 -0.000
 -0.000  0.983 -0.000  0.005 -0.006
 -0.000 -0.000  0.983 -0.006 -0.005
 -0.000  0.005 -0.006  0.984  0.000
 -0.000 -0.006 -0.005  0.000  0.984
atomic mag. moment =  -3.63238
atom    4   Tr[ns(na)] (up, down, total) =   4.91616  1.30340  6.21956
   spin  1
    eigenvalues: 
  0.971  0.971  0.991  0.992  0.992
    eigenvectors:
  0.000  0.000  1.000  0.000  0.000
  0.006  0.556  0.000  0.042  0.396
  0.556  0.006  0.000  0.396  0.042
  0.182  0.256  0.000  0.126  0.436
  0.256  0.182  0.000  0.436  0.126
    occupations:
  0.991 -0.000 -0.000 -0.000 -0.000
 -0.000  0.980 -0.000 -0.007 -0.007
 -0.000 -0.000  0.980 -0.007  0.007
 -0.000 -0.007 -0.007  0.983  0.000
 -0.000 -0.007  0.007  0.000  0.983
   spin  2
    eigenvalues: 
  0.205  0.205  0.217  0.339  0.339
    eigenvectors:
  0.000  0.000  1.000  0.000  0.000
  0.001  0.597  0.000  0.001  0.401
  0.597  0.001  0.000  0.401  0.001
  0.158  0.244  0.000  0.181  0.417
  0.244  0.158  0.000  0.417  0.181
    occupations:
  0.217 -0.000 -0.000 -0.000 -0.000
 -0.000  0.259 -0.000  0.053  0.039
 -0.000 -0.000  0.259  0.039 -0.053
 -0.000  0.053  0.039  0.285  0.000
 -0.000  0.039 -0.053  0.000  0.285
atomic mag. moment =   3.61276
atom    5   Tr[ns(na)] (up, down, total) =   4.94644  1.13475  6.08118
   spin  1
    eigenvalues: 
  0.982  0.982  0.993  0.994  0.994
    eigenvectors:
  0.000  0.000  1.000  0.000  0.000
  0.377  0.105  0.000  0.328  0.191
  0.105  0.377  0.000  0.191  0.328
  0.061  0.458  0.000  0.016  0.466
  0.458  0.061  0.000  0.466  0.016
    occupations:
  0.993 -0.000 -0.000 -0.000 -0.000
 -0.000  0.989 -0.000  0.004 -0.004
 -0.000 -0.000  0.989 -0.004 -0.004
 -0.000  0.004 -0.004  0.988  0.000
 -0.000 -0.004 -0.004  0.000  0.988
   spin  2
    eigenvalues: 
  0.160  0.173  0.173  0.315  0.315
    eigenvectors:
  1.000  0.000  0.000  0.000  0.000
  0.000  0.367  0.023  0.582  0.029
  0.000  0.023  0.367  0.029  0.582
  0.000  0.058  0.553  0.043  0.346
  0.000  0.553  0.058  0.346  0.043
    occupations:
  0.160 -0.000 -0.000 -0.000 -0.000
 -0.000  0.259 -0.000 -0.037  0.059
 -0.000 -0.000  0.259  0.059  0.037
 -0.000 -0.037  0.059  0.228  0.000
 -0.000  0.059  0.037  0.000  0.228
atomic mag. moment =   3.81169
atom    6   Tr[ns(na)] (up, down, total) =   4.90328  1.24329  6.14656
   spin  1
    eigenvalues: 
  0.964  0.964  0.991  0.992  0.992
    eigenvectors:
  0.000  0.000  1.000  0.000  0.000
  0.007  0.628  0.000  0.059  0.306
  0.628  0.007  0.000  0.306  0.059
  0.177  0.188  0.000  0.126  0.509
  0.188  0.177  0.000  0.509  0.126
    occupations:
  0.991 -0.000 -0.000 -0.000 -0.000
 -0.000  0.974 -0.000 -0.009 -0.011
 -0.000 -0.000  0.974 -0.011  0.009
 -0.000 -0.009 -0.011  0.982  0.000
 -0.000 -0.011  0.009  0.000  0.982
   spin  2
    eigenvalues: 
  0.178  0.189  0.189  0.343  0.343
    eigenvectors:
  1.000  0.000  0.000  0.000  0.000
  0.000  0.008  0.265  0.003  0.725
  0.000  0.265  0.008  0.725  0.003
  0.000  0.172  0.556  0.123  0.149
  0.000  0.556  0.172  0.149  0.123
    occupations:
  0.178 -0.000 -0.000 -0.000 -0.000
 -0.000  0.301 -0.000  0.053  0.043
 -0.000 -0.000  0.301  0.043 -0.053
 -0.000  0.053  0.043  0.231  0.000
 -0.000  0.043 -0.053  0.000  0.231
atomic mag. moment =   3.65999
N of occupied +U levels =   37.088475
 --- exit write_ns ---

     negative rho (up, down):  1.235E-01 1.235E-01
 --- in v_hubbard ---
Hubbard energy    0.2168
 -------

     total cpu time spent up to now is      964.1 secs

     total energy              =   -3194.81791546 Ry
     estimated scf accuracy    <       0.02668471 Ry

     total magnetization       =    -0.01 Bohr mag/cell
     absolute magnetization    =    27.13 Bohr mag/cell

     iteration #  3     ecut=    35.00 Ry     beta= 0.40
     CG style diagonalization
     ethr =  1.12E-06,  avg # of iterations =  3.3
 --- enter write_ns ---
 LDA+U parameters:
alpha( 3) =  0.08000000
alpha( 4) =  0.08000000
atom    1   Tr[ns(na)] (up, down, total) =   1.12452  4.94565  6.07017
   spin  1
    eigenvalues: 
  0.158  0.171  0.171  0.312  0.312
    eigenvectors:
  1.000  0.000  0.000  0.000  0.000
  0.000  0.076  0.316  0.024  0.584
  0.000  0.316  0.076  0.584  0.024
  0.000  0.165  0.443  0.203  0.189
  0.000  0.443  0.165  0.189  0.203
    occupations:
  0.158 -0.000 -0.000 -0.000 -0.000
 -0.000  0.257 -0.000  0.037  0.058
 -0.000 -0.000  0.257  0.058 -0.037
 -0.000  0.037  0.058  0.226  0.000
 -0.000  0.058 -0.037  0.000  0.226
   spin  2
    eigenvalues: 
  0.982  0.982  0.993  0.994  0.994
    eigenvectors:
  0.000  0.000  1.000  0.000  0.000
  0.005  0.471  0.000  0.021  0.503
  0.471  0.005  0.000  0.503  0.021
  0.186  0.338  0.000  0.125  0.351
  0.338  0.186  0.000  0.351  0.125
    occupations:
  0.993 -0.000 -0.000 -0.000 -0.000
 -0.000  0.988 -0.000 -0.004 -0.004
 -0.000 -0.000  0.988 -0.004  0.004
 -0.000 -0.004 -0.004  0.988  0.000
 -0.000 -0.004  0.004  0.000  0.988
atomic mag. moment =  -3.82112
atom    2   Tr[ns(na)] (up, down, total) =   1.22352  4.90137  6.12489
   spin  1
    eigenvalues: 
  0.175  0.185  0.185  0.339  0.339
    eigenvectors:
  1.000  0.000  0.000  0.000  0.000
  0.000  0.213  0.066  0.268  0.453
  0.000  0.066  0.213  0.453  0.268
  0.000  0.095  0.626  0.000  0.278
  0.000  0.626  0.095  0.278  0.000
    occupations:
  0.175 -0.000 -0.000 -0.000 -0.000
 -0.000  0.296 -0.000 -0.053  0.044
 -0.000 -0.000  0.296  0.044  0.053
 -0.000 -0.053  0.044  0.228  0.000
 -0.000  0.044  0.053  0.000  0.228
   spin  2
    eigenvalues: 
  0.963  0.963  0.991  0.992  0.992
    eigenvectors:
  0.000  0.000  1.000  0.000  0.000
  0.464  0.175  0.000  0.297  0.063
  0.175  0.464  0.000  0.063  0.297
  0.007  0.354  0.000  0.042  0.597
  0.354  0.007  0.000  0.597  0.042
    occupations:
  0.991 -0.000 -0.000 -0.000 -0.000
 -0.000  0.974 -0.000  0.009 -0.011
 -0.000 -0.000  0.974 -0.011 -0.009
 -0.000  0.009 -0.011  0.982  0.000
 -0.000 -0.011 -0.009  0.000  0.982
atomic mag. moment =  -3.67786
atom    3   Tr[ns(na)] (up, down, total) =   1.24325  4.90820  6.15146
   spin  1
    eigenvalues: 
  0.192  0.192  0.203  0.328  0.328
    eigenvectors:
  0.000  0.000  1.000  0.000  0.000
  0.369  0.206  0.000  0.322  0.103
  0.206  0.369  0.000  0.103  0.322
  0.027  0.398  0.000  0.080  0.495
  0.398  0.027  0.000  0.495  0.080
    occupations:
  0.203 -0.000 -0.000 -0.000 -0.000
 -0.000  0.250 -0.000 -0.053  0.042
 -0.000 -0.000  0.250  0.042  0.053
 -0.000 -0.053  0.042  0.270  0.000
 -0.000  0.042  0.053  0.000  0.270
   spin  2
    eigenvalues: 
  0.968  0.968  0.990  0.991  0.991
    eigenvectors:
  0.000  0.000  1.000  0.000  0.000
  0.446  0.123  0.000  0.320  0.111
  0.123  0.446  0.000  0.111  0.320
  0.031  0.400  0.000  0.028  0.541
  0.400  0.031  0.000  0.541  0.028
    occupations:
  0.990 -0.000 -0.000 -0.000 -0.000
 -0.000  0.978 -0.000  0.008 -0.008
 -0.000 -0.000  0.978 -0.008 -0.008
 -0.000  0.008 -0.008  0.981  0.000
 -0.000 -0.008 -0.008  0.000  0.981
atomic mag. moment =  -3.66495
atom    4   Tr[ns(na)] (up, down, total) =   4.92762  1.29733  6.22495
   spin  1
    eigenvalues: 
  0.977  0.977  0.991  0.992  0.992
    eigenvectors:
  0.000  0.000  1.000  0.000  0.000
  0.011  0.516  0.000  0.048  0.425
  0.516  0.011  0.000  0.425  0.048
  0.192  0.281  0.000  0.126  0.401
  0.281  0.192  0.000  0.401  0.126
    occupations:
  0.991 -0.000 -0.000 -0.000 -0.000
 -0.000  0.984 -0.000 -0.005 -0.005
 -0.000 -0.000  0.984 -0.005  0.005
 -0.000 -0.005 -0.005  0.985  0.000
 -0.000 -0.005  0.005  0.000  0.985
   spin  2
    eigenvalues: 
  0.205  0.205  0.215  0.336  0.336
    eigenvectors:
  0.000  0.000  1.000  0.000  0.000
  0.003  0.624  0.000  0.001  0.372
  0.624  0.003  0.000  0.372  0.001
  0.153  0.220  0.000  0.185  0.442
  0.220  0.153  0.000  0.442  0.185
    occupations:
  0.215 -0.000 -0.000 -0.000 -0.000
 -0.000  0.254 -0.000  0.051  0.037
 -0.000 -0.000  0.254  0.037 -0.051
 -0.000  0.051  0.037  0.287  0.000
 -0.000  0.037 -0.051  0.000  0.287
atomic mag. moment =   3.63029
atom    5   Tr[ns(na)] (up, down, total) =   4.96630  1.19746  6.16375
   spin  1
    eigenvalues: 
  0.992  0.992  0.993  0.995  0.995
    eigenvectors:
  0.000  0.000  1.000  0.000  0.000
  0.262  0.002  0.000  0.463  0.273
  0.002  0.262  0.000  0.273  0.463
  0.181  0.555  0.000  0.012  0.251
  0.555  0.181  0.000  0.251  0.012
    occupations:
  0.993 -0.000 -0.000 -0.000 -0.000
 -0.000  0.994 -0.000  0.001 -0.001
 -0.000 -0.000  0.994 -0.001 -0.001
 -0.000  0.001 -0.001  0.993  0.000
 -0.000 -0.001 -0.001  0.000  0.993
   spin  2
    eigenvalues: 
  0.183  0.183  0.194  0.319  0.319
    eigenvectors:
  0.000  0.000  1.000  0.000  0.000
  0.362  0.012  0.000  0.616  0.011
  0.012  0.362  0.000  0.011  0.616
  0.067  0.560  0.000  0.051  0.323
  0.560  0.067  0.000  0.323  0.051
    occupations:
  0.194 -0.000 -0.000 -0.000 -0.000
 -0.000  0.268 -0.000 -0.032  0.058
 -0.000 -0.000  0.268  0.058  0.032
 -0.000 -0.032  0.058  0.234  0.000
 -0.000  0.058  0.032  0.000  0.234
atomic mag. moment =   3.76884
atom    6   Tr[ns(na)] (up, down, total) =   4.92348  1.29817  6.22165
   spin  1
    eigenvalues: 
  0.973  0.973  0.991  0.993  0.993
    eigenvectors:
  0.000  0.000  1.000  0.000  0.000
  0.009  0.646  0.000  0.071  0.273
  0.646  0.009  0.000  0.273  0.071
  0.179  0.166  0.000  0.124  0.531
  0.166  0.179  0.000  0.531  0.124
    occupations:
  0.991 -0.000 -0.000 -0.000 -0.000
 -0.000  0.980 -0.000 -0.006 -0.007
 -0.000 -0.000  0.980 -0.007  0.006
 -0.000 -0.006 -0.007  0.986  0.000
 -0.000 -0.007  0.006  0.000  0.986
   spin  2
    eigenvalues: 
  0.185  0.207  0.207  0.349  0.349
    eigenvectors:
  1.000  0.000  0.000  0.000  0.000
  0.000  0.001  0.239  0.012  0.748
  0.000  0.239  0.001  0.748  0.012
  0.000  0.177  0.584  0.096  0.144
  0.000  0.584  0.177  0.144  0.096
    occupations:
  0.185 -0.000 -0.000 -0.000 -0.000
 -0.000  0.315 -0.000  0.051  0.032
 -0.000 -0.000  0.315  0.032 -0.051
 -0.000  0.051  0.032  0.241  0.000
 -0.000  0.032 -0.051  0.000  0.241
atomic mag. moment =   3.62530
N of occupied +U levels =   36.956867
 --- exit write_ns ---

     negative rho (up, down):  1.235E-01 1.235E-01
 --- in v_hubbard ---
Hubbard energy    0.2169
 -------

     total cpu time spent up to now is     1082.3 secs

     total energy              =   -3194.81952427 Ry
     estimated scf accuracy    <       0.02597982 Ry

     total magnetization       =     0.02 Bohr mag/cell
     absolute magnetization    =    27.19 Bohr mag/cell

     iteration #  4     ecut=    35.00 Ry     beta= 0.40
     CG style diagonalization
     ethr =  1.12E-06,  avg # of iterations =  3.0
 --- enter write_ns ---
 LDA+U parameters:
alpha( 3) =  0.08000000
alpha( 4) =  0.08000000
atom    1   Tr[ns(na)] (up, down, total) =   1.12537  4.96233  6.08770
   spin  1
    eigenvalues: 
  0.161  0.169  0.169  0.313  0.313
    eigenvectors:
  1.000  0.000  0.000  0.000  0.000
  0.000  0.079  0.311  0.025  0.586
  0.000  0.311  0.079  0.586  0.025
  0.000  0.166  0.445  0.204  0.185
  0.000  0.445  0.166  0.185  0.204
    occupations:
  0.161 -0.000 -0.000 -0.000 -0.000
 -0.000  0.257 -0.000  0.037  0.060
 -0.000 -0.000  0.257  0.060 -0.037
 -0.000  0.037  0.060  0.225  0.000
 -0.000  0.060 -0.037  0.000  0.225
   spin  2
    eigenvalues: 
  0.990  0.990  0.993  0.994  0.994
    eigenvectors:
  0.000  0.000  1.000  0.000  0.000
  0.043  0.300  0.000  0.050  0.607
  0.300  0.043  0.000  0.607  0.050
  0.225  0.432  0.000  0.145  0.198
  0.432  0.225  0.000  0.198  0.145
    occupations:
  0.993 -0.000 -0.000 -0.000 -0.000
 -0.000  0.993 -0.000 -0.001 -0.002
 -0.000 -0.000  0.993 -0.002  0.001
 -0.000 -0.001 -0.002  0.992  0.000
 -0.000 -0.002  0.001  0.000  0.992
atomic mag. moment =  -3.83696
atom    2   Tr[ns(na)] (up, down, total) =   1.24505  4.91755  6.16260
   spin  1
    eigenvalues: 
  0.178  0.191  0.191  0.343  0.343
    eigenvectors:
  1.000  0.000  0.000  0.000  0.000
  0.000  0.194  0.072  0.242  0.492
  0.000  0.072  0.194  0.492  0.242
  0.000  0.102  0.632  0.000  0.266
  0.000  0.632  0.102  0.266  0.000
    occupations:
  0.178 -0.000 -0.000 -0.000 -0.000
 -0.000  0.302 -0.000 -0.054  0.040
 -0.000 -0.000  0.302  0.040  0.054
 -0.000 -0.054  0.040  0.231  0.000
 -0.000  0.040  0.054  0.000  0.231
   spin  2
    eigenvalues: 
  0.971  0.971  0.991  0.993  0.993
    eigenvectors:
  0.000  0.000  1.000  0.000  0.000
  0.479  0.173  0.000  0.298  0.050
  0.173  0.479  0.000  0.050  0.298
  0.004  0.344  0.000  0.044  0.608
  0.344  0.004  0.000  0.608  0.044
    occupations:
  0.991 -0.000 -0.000 -0.000 -0.000
 -0.000  0.978 -0.000  0.006 -0.008
 -0.000 -0.000  0.978 -0.008 -0.006
 -0.000  0.006 -0.008  0.985  0.000
 -0.000 -0.008 -0.006  0.000  0.985
atomic mag. moment =  -3.67249
atom    3   Tr[ns(na)] (up, down, total) =   1.26548  4.92201  6.18749
   spin  1
    eigenvalues: 
  0.197  0.197  0.207  0.332  0.332
    eigenvectors:
  0.000  0.000  1.000  0.000  0.000
  0.362  0.238  0.000  0.296  0.105
  0.238  0.362  0.000  0.105  0.296
  0.024  0.376  0.000  0.088  0.512
  0.376  0.024  0.000  0.512  0.088
    occupations:
  0.207 -0.000 -0.000 -0.000 -0.000
 -0.000  0.251 -0.000 -0.053  0.039
 -0.000 -0.000  0.251  0.039  0.053
 -0.000 -0.053  0.039  0.278  0.000
 -0.000  0.039  0.053  0.000  0.278
   spin  2
    eigenvalues: 
  0.974  0.974  0.991  0.991  0.991
    eigenvectors:
  0.000  0.000  1.000  0.000  0.000
  0.454  0.088  0.000  0.341  0.117
  0.088  0.454  0.000  0.117  0.341
  0.045  0.413  0.000  0.022  0.520
  0.413  0.045  0.000  0.520  0.022
    occupations:
  0.991 -0.000 -0.000 -0.000 -0.000
 -0.000  0.982 -0.000  0.006 -0.006
 -0.000 -0.000  0.982 -0.006 -0.006
 -0.000  0.006 -0.006  0.984  0.000
 -0.000 -0.006 -0.006  0.000  0.984
atomic mag. moment =  -3.65654
atom    4   Tr[ns(na)] (up, down, total) =   4.91940  1.24929  6.16870
   spin  1
    eigenvalues: 
  0.973  0.973  0.990  0.991  0.991
    eigenvectors:
  0.000  0.000  1.000  0.000  0.000
  0.010  0.537  0.000  0.050  0.403
  0.537  0.010  0.000  0.403  0.050
  0.189  0.264  0.000  0.126  0.421
  0.264  0.189  0.000  0.421  0.126
    occupations:
  0.990 -0.000 -0.000 -0.000 -0.000
 -0.000  0.981 -0.000 -0.006 -0.007
 -0.000 -0.000  0.981 -0.007  0.006
 -0.000 -0.006 -0.007  0.983  0.000
 -0.000 -0.007  0.006  0.000  0.983
   spin  2
    eigenvalues: 
  0.194  0.194  0.203  0.329  0.329
    eigenvectors:
  0.000  0.000  1.000  0.000  0.000
  0.000  0.594  0.000  0.002  0.404
  0.594  0.000  0.000  0.404  0.002
  0.160  0.245  0.000  0.183  0.411
  0.245  0.160  0.000  0.411  0.183
    occupations:
  0.203 -0.000 -0.000 -0.000 -0.000
 -0.000  0.249 -0.000  0.053  0.040
 -0.000 -0.000  0.249  0.040 -0.053
 -0.000  0.053  0.040  0.274  0.000
 -0.000  0.040 -0.053  0.000  0.274
atomic mag. moment =   3.67011
atom    5   Tr[ns(na)] (up, down, total) =   4.96198  1.13982  6.10179
   spin  1
    eigenvalues: 
  0.990  0.990  0.993  0.994  0.994
    eigenvectors:
  0.000  0.000  1.000  0.000  0.000
  0.354  0.007  0.000  0.437  0.202
  0.007  0.354  0.000  0.202  0.437
  0.133  0.506  0.000  0.000  0.360
  0.506  0.133  0.000  0.360  0.000
    occupations:
  0.993 -0.000 -0.000 -0.000 -0.000
 -0.000  0.993 -0.000  0.001 -0.002
 -0.000 -0.000  0.993 -0.002 -0.001
 -0.000  0.001 -0.002  0.992  0.000
 -0.000 -0.002 -0.001  0.000  0.992
   spin  2
    eigenvalues: 
  0.168  0.172  0.172  0.314  0.314
    eigenvectors:
  1.000  0.000  0.000  0.000  0.000
  0.000  0.367  0.021  0.585  0.026
  0.000  0.021  0.367  0.026  0.585
  0.000  0.060  0.552  0.044  0.344
  0.000  0.552  0.060  0.344  0.044
    occupations:
  0.168 -0.000 -0.000 -0.000 -0.000
 -0.000  0.259 -0.000 -0.036  0.059
 -0.000 -0.000  0.259  0.059  0.036
 -0.000 -0.036  0.059  0.227  0.000
 -0.000  0.059  0.036  0.000  0.227
atomic mag. moment =   3.82216
atom    6   Tr[ns(na)] (up, down, total) =   4.91465  1.23901  6.15366
   spin  1
    eigenvalues: 
  0.969  0.969  0.991  0.992  0.992
    eigenvectors:
  0.000  0.000  1.000  0.000  0.000
  0.009  0.643  0.000  0.070  0.278
  0.643  0.009  0.000  0.278  0.070
  0.179  0.169  0.000  0.125  0.527
  0.169  0.179  0.000  0.527  0.125
    occupations:
  0.991 -0.000 -0.000 -0.000 -0.000
 -0.000  0.977 -0.000 -0.007 -0.009
 -0.000 -0.000  0.977 -0.009  0.007
 -0.000 -0.007 -0.009  0.984  0.000
 -0.000 -0.009  0.007  0.000  0.984
   spin  2
    eigenvalues: 
  0.176  0.190  0.190  0.341  0.341
    eigenvectors:
  1.000  0.000  0.000  0.000  0.000
  0.000  0.005  0.262  0.004  0.729
  0.000  0.262  0.005  0.729  0.004
  0.000  0.173  0.561  0.117  0.150
  0.000  0.561  0.173  0.150  0.117
    occupations:
  0.176 -0.000 -0.000 -0.000 -0.000
 -0.000  0.301 -0.000  0.053  0.040
 -0.000 -0.000  0.301  0.040 -0.053
 -0.000  0.053  0.040  0.231  0.000
 -0.000  0.040 -0.053  0.000  0.231
atomic mag. moment =   3.67563
N of occupied +U levels =   36.861951
 --- exit write_ns ---

     negative rho (up, down):  1.235E-01 1.235E-01
 --- in v_hubbard ---
Hubbard energy    0.2169
 -------

     total cpu time spent up to now is     1189.9 secs

     total energy              =   -3194.82070742 Ry
     estimated scf accuracy    <       0.00042913 Ry

     total magnetization       =    -0.02 Bohr mag/cell
     absolute magnetization    =    27.35 Bohr mag/cell

     iteration #  5     ecut=    35.00 Ry     beta= 0.40
     CG style diagonalization
     ethr =  1.46E-07,  avg # of iterations =  3.0
 --- enter write_ns ---
 LDA+U parameters:
alpha( 3) =  0.08000000
alpha( 4) =  0.08000000
atom    1   Tr[ns(na)] (up, down, total) =   1.13363  4.96250  6.09613
   spin  1
    eigenvalues: 
  0.165  0.171  0.171  0.314  0.314
    eigenvectors:
  1.000  0.000  0.000  0.000  0.000
  0.000  0.079  0.310  0.025  0.586
  0.000  0.310  0.079  0.586  0.025
  0.000  0.166  0.445  0.204  0.184
  0.000  0.445  0.166  0.184  0.204
    occupations:
  0.165 -0.000 -0.000 -0.000 -0.000
 -0.000  0.258 -0.000  0.037  0.059
 -0.000 -0.000  0.258  0.059 -0.037
 -0.000  0.037  0.059  0.226  0.000
 -0.000  0.059 -0.037  0.000  0.226
   spin  2
    eigenvalues: 
  0.990  0.990  0.993  0.994  0.994
    eigenvectors:
  0.000  0.000  1.000  0.000  0.000
  0.042  0.303  0.000  0.050  0.605
  0.303  0.042  0.000  0.605  0.050
  0.224  0.430  0.000  0.145  0.201
  0.430  0.224  0.000  0.201  0.145
    occupations:
  0.993 -0.000 -0.000 -0.000 -0.000
 -0.000  0.993 -0.000 -0.001 -0.002
 -0.000 -0.000  0.993 -0.002  0.001
 -0.000 -0.001 -0.002  0.992  0.000
 -0.000 -0.002  0.001  0.000  0.992
atomic mag. moment =  -3.82887
atom    2   Tr[ns(na)] (up, down, total) =   1.23682  4.91588  6.15269
   spin  1
    eigenvalues: 
  0.176  0.189  0.189  0.341  0.341
    eigenvectors:
  1.000  0.000  0.000  0.000  0.000
  0.000  0.197  0.071  0.245  0.487
  0.000  0.071  0.197  0.487  0.245
  0.000  0.102  0.630  0.000  0.268
  0.000  0.630  0.102  0.268  0.000
    occupations:
  0.176 -0.000 -0.000 -0.000 -0.000
 -0.000  0.300 -0.000 -0.054  0.041
 -0.000 -0.000  0.300  0.041  0.054
 -0.000 -0.054  0.041  0.230  0.000
 -0.000  0.041  0.054  0.000  0.230
   spin  2
    eigenvalues: 
  0.970  0.970  0.991  0.993  0.993
    eigenvectors:
  0.000  0.000  1.000  0.000  0.000
  0.479  0.173  0.000  0.298  0.050
  0.173  0.479  0.000  0.050  0.298
  0.004  0.344  0.000  0.044  0.608
  0.344  0.004  0.000  0.608  0.044
    occupations:
  0.991 -0.000 -0.000 -0.000 -0.000
 -0.000  0.978 -0.000  0.007 -0.009
 -0.000 -0.000  0.978 -0.009 -0.007
 -0.000  0.007 -0.009  0.985  0.000
 -0.000 -0.009 -0.007  0.000  0.985
atomic mag. moment =  -3.67906
atom    3   Tr[ns(na)] (up, down, total) =   1.25458  4.92086  6.17544
   spin  1
    eigenvalues: 
  0.195  0.195  0.204  0.330  0.330
    eigenvectors:
  0.000  0.000  1.000  0.000  0.000
  0.364  0.233  0.000  0.300  0.103
  0.233  0.364  0.000  0.103  0.300
  0.024  0.379  0.000  0.087  0.510
  0.379  0.024  0.000  0.510  0.087
    occupations:
  0.204 -0.000 -0.000 -0.000 -0.000
 -0.000  0.249 -0.000 -0.053  0.040
 -0.000 -0.000  0.249  0.040  0.053
 -0.000 -0.053  0.040  0.276  0.000
 -0.000  0.040  0.053  0.000  0.276
   spin  2
    eigenvalues: 
  0.974  0.974  0.990  0.991  0.991
    eigenvectors:
  0.000  0.000  1.000  0.000  0.000
  0.454  0.089  0.000  0.341  0.116
  0.089  0.454  0.000  0.116  0.341
  0.044  0.413  0.000  0.022  0.521
  0.413  0.044  0.000  0.521  0.022
    occupations:
  0.990 -0.000 -0.000 -0.000 -0.000
 -0.000  0.982 -0.000  0.006 -0.006
 -0.000 -0.000  0.982 -0.006 -0.006
 -0.000  0.006 -0.006  0.983  0.000
 -0.000 -0.006 -0.006  0.000  0.983
atomic mag. moment =  -3.66628
atom    4   Tr[ns(na)] (up, down, total) =   4.92109  1.25523  6.17632
   spin  1
    eigenvalues: 
  0.974  0.974  0.990  0.991  0.991
    eigenvectors:
  0.000  0.000  1.000  0.000  0.000
  0.010  0.532  0.000  0.050  0.408
  0.532  0.010  0.000  0.408  0.050
  0.190  0.267  0.000  0.126  0.417
  0.267  0.190  0.000  0.417  0.126
    occupations:
  0.990 -0.000 -0.000 -0.000 -0.000
 -0.000  0.982 -0.000 -0.006 -0.006
 -0.000 -0.000  0.982 -0.006  0.006
 -0.000 -0.006 -0.006  0.983  0.000
 -0.000 -0.006  0.006  0.000  0.983
   spin  2
    eigenvalues: 
  0.195  0.195  0.205  0.330  0.330
    eigenvectors:
  0.000  0.000  1.000  0.000  0.000
  0.001  0.596  0.000  0.002  0.402
  0.596  0.001  0.000  0.402  0.002
  0.160  0.243  0.000  0.183  0.414
  0.243  0.160  0.000  0.414  0.183
    occupations:
  0.205 -0.000 -0.000 -0.000 -0.000
 -0.000  0.250 -0.000  0.053  0.040
 -0.000 -0.000  0.250  0.040 -0.053
 -0.000  0.053  0.040  0.276  0.000
 -0.000  0.040 -0.053  0.000  0.276
atomic mag. moment =   3.66587
atom    5   Tr[ns(na)] (up, down, total) =   4.96260  1.13415  6.09675
   spin  1
    eigenvalues: 
  0.990  0.990  0.993  0.994  0.994
    eigenvectors:
  0.000  0.000  1.000  0.000  0.000
  0.342  0.004  0.000  0.446  0.209
  0.004  0.342  0.000  0.209  0.446
  0.141  0.513  0.000  0.000  0.345
  0.513  0.141  0.000  0.345  0.000
    occupations:
  0.993 -0.000 -0.000 -0.000 -0.000
 -0.000  0.993 -0.000  0.001 -0.002
 -0.000 -0.000  0.993 -0.002 -0.001
 -0.000  0.001 -0.002  0.992  0.000
 -0.000 -0.002 -0.001  0.000  0.992
   spin  2
    eigenvalues: 
  0.165  0.171  0.171  0.314  0.314
    eigenvectors:
  1.000  0.000  0.000  0.000  0.000
  0.000  0.367  0.022  0.584  0.027
  0.000  0.022  0.367  0.027  0.584
  0.000  0.059  0.552  0.044  0.345
  0.000  0.552  0.059  0.345  0.044
    occupations:
  0.165 -0.000 -0.000 -0.000 -0.000
 -0.000  0.258 -0.000 -0.037  0.059
 -0.000 -0.000  0.258  0.059  0.037
 -0.000 -0.037  0.059  0.226  0.000
 -0.000  0.059  0.037  0.000  0.226
atomic mag. moment =   3.82845
atom    6   Tr[ns(na)] (up, down, total) =   4.91613  1.23860  6.15473
   spin  1
    eigenvalues: 
  0.970  0.970  0.991  0.993  0.993
    eigenvectors:
  0.000  0.000  1.000  0.000  0.000
  0.009  0.643  0.000  0.071  0.277
  0.643  0.009  0.000  0.277  0.071
  0.179  0.169  0.000  0.124  0.528
  0.169  0.179  0.000  0.528  0.124
    occupations:
  0.991 -0.000 -0.000 -0.000 -0.000
 -0.000  0.978 -0.000 -0.006 -0.009
 -0.000 -0.000  0.978 -0.009  0.006
 -0.000 -0.006 -0.009  0.985  0.000
 -0.000 -0.009  0.006  0.000  0.985
   spin  2
    eigenvalues: 
  0.176  0.190  0.190  0.341  0.341
    eigenvectors:
  1.000  0.000  0.000  0.000  0.000
  0.000  0.005  0.262  0.004  0.729
  0.000  0.262  0.005  0.729  0.004
  0.000  0.173  0.560  0.116  0.151
  0.000  0.560  0.173  0.151  0.116
    occupations:
  0.176 -0.000 -0.000 -0.000 -0.000
 -0.000  0.301 -0.000  0.054  0.040
 -0.000 -0.000  0.301  0.040 -0.054
 -0.000  0.054  0.040  0.230  0.000
 -0.000  0.040 -0.054  0.000  0.230
atomic mag. moment =   3.67753
N of occupied +U levels =   36.852059
 --- exit write_ns ---

     negative rho (up, down):  1.235E-01 1.235E-01
 --- in v_hubbard ---
Hubbard energy    0.2169
 -------

     total cpu time spent up to now is     1302.1 secs

     total energy              =   -3194.82074479 Ry
     estimated scf accuracy    <       0.00006370 Ry

     total magnetization       =    -0.00 Bohr mag/cell
     absolute magnetization    =    27.37 Bohr mag/cell

     iteration #  6     ecut=    35.00 Ry     beta= 0.40
     CG style diagonalization
     ethr =  2.17E-08,  avg # of iterations =  3.0
 --- enter write_ns ---
 LDA+U parameters:
alpha( 3) =  0.08000000
alpha( 4) =  0.08000000
atom    1   Tr[ns(na)] (up, down, total) =   1.13448  4.96278  6.09726
   spin  1
    eigenvalues: 
  0.165  0.171  0.171  0.314  0.314
    eigenvectors:
  1.000  0.000  0.000  0.000  0.000
  0.000  0.078  0.310  0.025  0.586
  0.000  0.310  0.078  0.586  0.025
  0.000  0.167  0.445  0.205  0.184
  0.000  0.445  0.167  0.184  0.205
    occupations:
  0.165 -0.000 -0.000 -0.000 -0.000
 -0.000  0.258 -0.000  0.037  0.059
 -0.000 -0.000  0.258  0.059 -0.037
 -0.000  0.037  0.059  0.227  0.000
 -0.000  0.059 -0.037  0.000  0.227
   spin  2
    eigenvalues: 
  0.990  0.990  0.993  0.994  0.994
    eigenvectors:
  0.000  0.000  1.000  0.000  0.000
  0.044  0.296  0.000  0.050  0.610
  0.296  0.044  0.000  0.610  0.050
  0.225  0.435  0.000  0.146  0.195
  0.435  0.225  0.000  0.195  0.146
    occupations:
  0.993 -0.000 -0.000 -0.000 -0.000
 -0.000  0.993 -0.000 -0.001 -0.002
 -0.000 -0.000  0.993 -0.002  0.001
 -0.000 -0.001 -0.002  0.992  0.000
 -0.000 -0.002  0.001  0.000  0.992
atomic mag. moment =  -3.82830
atom    2   Tr[ns(na)] (up, down, total) =   1.23804  4.91638  6.15442
   spin  1
    eigenvalues: 
  0.176  0.189  0.189  0.341  0.341
    eigenvectors:
  1.000  0.000  0.000  0.000  0.000
  0.000  0.196  0.072  0.245  0.487
  0.000  0.072  0.196  0.487  0.245
  0.000  0.101  0.631  0.000  0.268
  0.000  0.631  0.101  0.268  0.000
    occupations:
  0.176 -0.000 -0.000 -0.000 -0.000
 -0.000  0.301 -0.000 -0.054  0.041
 -0.000 -0.000  0.301  0.041  0.054
 -0.000 -0.054  0.041  0.230  0.000
 -0.000  0.041  0.054  0.000  0.230
   spin  2
    eigenvalues: 
  0.970  0.970  0.991  0.993  0.993
    eigenvectors:
  0.000  0.000  1.000  0.000  0.000
  0.481  0.171  0.000  0.298  0.050
  0.171  0.481  0.000  0.050  0.298
  0.004  0.344  0.000  0.044  0.608
  0.344  0.004  0.000  0.608  0.044
    occupations:
  0.991 -0.000 -0.000 -0.000 -0.000
 -0.000  0.978 -0.000  0.006 -0.008
 -0.000 -0.000  0.978 -0.008 -0.006
 -0.000  0.006 -0.008  0.985  0.000
 -0.000 -0.008 -0.006  0.000  0.985
atomic mag. moment =  -3.67834
atom    3   Tr[ns(na)] (up, down, total) =   1.25537  4.92115  6.17652
   spin  1
    eigenvalues: 
  0.195  0.195  0.205  0.330  0.330
    eigenvectors:
  0.000  0.000  1.000  0.000  0.000
  0.364  0.233  0.000  0.300  0.103
  0.233  0.364  0.000  0.103  0.300
  0.024  0.379  0.000  0.087  0.510
  0.379  0.024  0.000  0.510  0.087
    occupations:
  0.205 -0.000 -0.000 -0.000 -0.000
 -0.000  0.250 -0.000 -0.053  0.040
 -0.000 -0.000  0.250  0.040  0.053
 -0.000 -0.053  0.040  0.276  0.000
 -0.000  0.040  0.053  0.000  0.276
   spin  2
    eigenvalues: 
  0.974  0.974  0.990  0.991  0.991
    eigenvectors:
  0.000  0.000  1.000  0.000  0.000
  0.454  0.088  0.000  0.341  0.117
  0.088  0.454  0.000  0.117  0.341
  0.045  0.413  0.000  0.022  0.520
  0.413  0.045  0.000  0.520  0.022
    occupations:
  0.990 -0.000 -0.000 -0.000 -0.000
 -0.000  0.982 -0.000  0.006 -0.006
 -0.000 -0.000  0.982 -0.006 -0.006
 -0.000  0.006 -0.006  0.983  0.000
 -0.000 -0.006 -0.006  0.000  0.983
atomic mag. moment =  -3.66578
atom    4   Tr[ns(na)] (up, down, total) =   4.92081  1.25282  6.17363
   spin  1
    eigenvalues: 
  0.974  0.974  0.990  0.991  0.991
    eigenvectors:
  0.000  0.000  1.000  0.000  0.000
  0.010  0.533  0.000  0.050  0.407
  0.533  0.010  0.000  0.407  0.050
  0.190  0.267  0.000  0.126  0.417
  0.267  0.190  0.000  0.417  0.126
    occupations:
  0.990 -0.000 -0.000 -0.000 -0.000
 -0.000  0.982 -0.000 -0.006 -0.006
 -0.000 -0.000  0.982 -0.006  0.006
 -0.000 -0.006 -0.006  0.983  0.000
 -0.000 -0.006  0.006  0.000  0.983
   spin  2
    eigenvalues: 
  0.195  0.195  0.204  0.330  0.330
    eigenvectors:
  0.000  0.000  1.000  0.000  0.000
  0.001  0.595  0.000  0.002  0.403
  0.595  0.001  0.000  0.403  0.002
  0.160  0.245  0.000  0.183  0.413
  0.245  0.160  0.000  0.413  0.183
    occupations:
  0.204 -0.000 -0.000 -0.000 -0.000
 -0.000  0.249 -0.000  0.053  0.040
 -0.000 -0.000  0.249  0.040 -0.053
 -0.000  0.053  0.040  0.275  0.000
 -0.000  0.040 -0.053  0.000  0.275
atomic mag. moment =   3.66799
atom    5   Tr[ns(na)] (up, down, total) =   4.96276  1.13657  6.09933
   spin  1
    eigenvalues: 
  0.990  0.990  0.993  0.994  0.994
    eigenvectors:
  0.000  0.000  1.000  0.000  0.000
  0.339  0.003  0.000  0.446  0.211
  0.003  0.339  0.000  0.211  0.446
  0.143  0.514  0.000  0.000  0.342
  0.514  0.143  0.000  0.342  0.000
    occupations:
  0.993 -0.000 -0.000 -0.000 -0.000
 -0.000  0.993 -0.000  0.001 -0.002
 -0.000 -0.000  0.993 -0.002 -0.001
 -0.000  0.001 -0.002  0.992  0.000
 -0.000 -0.002 -0.001  0.000  0.992
   spin  2
    eigenvalues: 
  0.166  0.171  0.171  0.314  0.314
    eigenvectors:
  1.000  0.000  0.000  0.000  0.000
  0.000  0.367  0.022  0.584  0.028
  0.000  0.022  0.367  0.028  0.584
  0.000  0.059  0.552  0.043  0.345
  0.000  0.552  0.059  0.345  0.043
    occupations:
  0.166 -0.000 -0.000 -0.000 -0.000
 -0.000  0.259 -0.000 -0.037  0.059
 -0.000 -0.000  0.259  0.059  0.037
 -0.000 -0.037  0.059  0.227  0.000
 -0.000  0.059  0.037  0.000  0.227
atomic mag. moment =   3.82619
atom    6   Tr[ns(na)] (up, down, total) =   4.91598  1.23743  6.15341
   spin  1
    eigenvalues: 
  0.970  0.970  0.991  0.993  0.993
    eigenvectors:
  0.000  0.000  1.000  0.000  0.000
  0.009  0.643  0.000  0.071  0.277
  0.643  0.009  0.000  0.277  0.071
  0.179  0.168  0.000  0.124  0.528
  0.168  0.179  0.000  0.528  0.124
    occupations:
  0.991 -0.000 -0.000 -0.000 -0.000
 -0.000  0.978 -0.000 -0.006 -0.009
 -0.000 -0.000  0.978 -0.009  0.006
 -0.000 -0.006 -0.009  0.985  0.000
 -0.000 -0.009  0.006  0.000  0.985
   spin  2
    eigenvalues: 
  0.176  0.189  0.189  0.341  0.341
    eigenvectors:
  1.000  0.000  0.000  0.000  0.000
  0.000  0.005  0.263  0.004  0.728
  0.000  0.263  0.005  0.728  0.004
  0.000  0.173  0.560  0.117  0.151
  0.000  0.560  0.173  0.151  0.117
    occupations:
  0.176 -0.000 -0.000 -0.000 -0.000
 -0.000  0.301 -0.000  0.054  0.040
 -0.000 -0.000  0.301  0.040 -0.054
 -0.000  0.054  0.040  0.230  0.000
 -0.000  0.040 -0.054  0.000  0.230
atomic mag. moment =   3.67855
N of occupied +U levels =   36.854573
 --- exit write_ns ---

     negative rho (up, down):  1.235E-01 1.235E-01
 --- in v_hubbard ---
Hubbard energy    0.2168
 -------

     total cpu time spent up to now is     1410.3 secs

     total energy              =   -3194.82074799 Ry
     estimated scf accuracy    <       0.00004273 Ry

     total magnetization       =    -0.00 Bohr mag/cell
     absolute magnetization    =    27.37 Bohr mag/cell

     iteration #  7     ecut=    35.00 Ry     beta= 0.40
     CG style diagonalization
     ethr =  1.45E-08,  avg # of iterations =  3.0
 --- enter write_ns ---
 LDA+U parameters:
alpha( 3) =  0.08000000
alpha( 4) =  0.08000000
atom    1   Tr[ns(na)] (up, down, total) =   1.13504  4.96263  6.09768
   spin  1
    eigenvalues: 
  0.165  0.171  0.171  0.314  0.314
    eigenvectors:
  1.000  0.000  0.000  0.000  0.000
  0.000  0.079  0.310  0.025  0.587
  0.000  0.310  0.079  0.587  0.025
  0.000  0.167  0.445  0.205  0.184
  0.000  0.445  0.167  0.184  0.205
    occupations:
  0.165 -0.000 -0.000 -0.000 -0.000
 -0.000  0.258 -0.000  0.037  0.059
 -0.000 -0.000  0.258  0.059 -0.037
 -0.000  0.037  0.059  0.226  0.000
 -0.000  0.059 -0.037  0.000  0.226
   spin  2
    eigenvalues: 
  0.990  0.990  0.993  0.994  0.994
    eigenvectors:
  0.000  0.000  1.000  0.000  0.000
  0.043  0.302  0.000  0.049  0.606
  0.302  0.043  0.000  0.606  0.049
  0.225  0.430  0.000  0.146  0.199
  0.430  0.225  0.000  0.199  0.146
    occupations:
  0.993 -0.000 -0.000 -0.000 -0.000
 -0.000  0.993 -0.000 -0.001 -0.002
 -0.000 -0.000  0.993 -0.002  0.001
 -0.000 -0.001 -0.002  0.992  0.000
 -0.000 -0.002  0.001  0.000  0.992
atomic mag. moment =  -3.82759
atom    2   Tr[ns(na)] (up, down, total) =   1.23755  4.91603  6.15357
   spin  1
    eigenvalues: 
  0.176  0.189  0.189  0.341  0.341
    eigenvectors:
  1.000  0.000  0.000  0.000  0.000
  0.000  0.197  0.071  0.245  0.487
  0.000  0.071  0.197  0.487  0.245
  0.000  0.102  0.630  0.000  0.268
  0.000  0.630  0.102  0.268  0.000
    occupations:
  0.176 -0.000 -0.000 -0.000 -0.000
 -0.000  0.301 -0.000 -0.054  0.041
 -0.000 -0.000  0.301  0.041  0.054
 -0.000 -0.054  0.041  0.230  0.000
 -0.000  0.041  0.054  0.000  0.230
   spin  2
    eigenvalues: 
  0.970  0.970  0.991  0.993  0.993
    eigenvectors:
  0.000  0.000  1.000  0.000  0.000
  0.479  0.173  0.000  0.298  0.050
  0.173  0.479  0.000  0.050  0.298
  0.004  0.344  0.000  0.044  0.608
  0.344  0.004  0.000  0.608  0.044
    occupations:
  0.991 -0.000 -0.000 -0.000 -0.000
 -0.000  0.978 -0.000  0.006 -0.009
 -0.000 -0.000  0.978 -0.009 -0.006
 -0.000  0.006 -0.009  0.985  0.000
 -0.000 -0.009 -0.006  0.000  0.985
atomic mag. moment =  -3.67848
atom    3   Tr[ns(na)] (up, down, total) =   1.25582  4.92118  6.17699
   spin  1
    eigenvalues: 
  0.195  0.195  0.205  0.330  0.330
    eigenvectors:
  0.000  0.000  1.000  0.000  0.000
  0.363  0.234  0.000  0.300  0.103
  0.234  0.363  0.000  0.103  0.300
  0.024  0.379  0.000  0.087  0.510
  0.379  0.024  0.000  0.510  0.087
    occupations:
  0.205 -0.000 -0.000 -0.000 -0.000
 -0.000  0.250 -0.000 -0.053  0.040
 -0.000 -0.000  0.250  0.040  0.053
 -0.000 -0.053  0.040  0.276  0.000
 -0.000  0.040  0.053  0.000  0.276
   spin  2
    eigenvalues: 
  0.974  0.974  0.990  0.991  0.991
    eigenvectors:
  0.000  0.000  1.000  0.000  0.000
  0.454  0.089  0.000  0.341  0.117
  0.089  0.454  0.000  0.117  0.341
  0.044  0.413  0.000  0.022  0.520
  0.413  0.044  0.000  0.520  0.022
    occupations:
  0.990 -0.000 -0.000 -0.000 -0.000
 -0.000  0.982 -0.000  0.006 -0.006
 -0.000 -0.000  0.982 -0.006 -0.006
 -0.000  0.006 -0.006  0.983  0.000
 -0.000 -0.006 -0.006  0.000  0.983
atomic mag. moment =  -3.66536
atom    4   Tr[ns(na)] (up, down, total) =   4.92122  1.25560  6.17682
   spin  1
    eigenvalues: 
  0.974  0.974  0.990  0.991  0.991
    eigenvectors:
  0.000  0.000  1.000  0.000  0.000
  0.010  0.532  0.000  0.050  0.408
  0.532  0.010  0.000  0.408  0.050
  0.190  0.268  0.000  0.126  0.417
  0.268  0.190  0.000  0.417  0.126
    occupations:
  0.990 -0.000 -0.000 -0.000 -0.000
 -0.000  0.982 -0.000 -0.006 -0.006
 -0.000 -0.000  0.982 -0.006  0.006
 -0.000 -0.006 -0.006  0.983  0.000
 -0.000 -0.006  0.006  0.000  0.983
   spin  2
    eigenvalues: 
  0.195  0.195  0.205  0.330  0.330
    eigenvectors:
  0.000  0.000  1.000  0.000  0.000
  0.001  0.596  0.000  0.002  0.402
  0.596  0.001  0.000  0.402  0.002
  0.159  0.244  0.000  0.183  0.414
  0.244  0.159  0.000  0.414  0.183
    occupations:
  0.205 -0.000 -0.000 -0.000 -0.000
 -0.000  0.250 -0.000  0.053  0.040
 -0.000 -0.000  0.250  0.040 -0.053
 -0.000  0.053  0.040  0.276  0.000
 -0.000  0.040 -0.053  0.000  0.276
atomic mag. moment =   3.66561
atom    5   Tr[ns(na)] (up, down, total) =   4.96265  1.13495  6.09760
   spin  1
    eigenvalues: 
  0.990  0.990  0.993  0.994  0.994
    eigenvectors:
  0.000  0.000  1.000  0.000  0.000
  0.341  0.004  0.000  0.446  0.209
  0.004  0.341  0.000  0.209  0.446
  0.142  0.513  0.000  0.000  0.345
  0.513  0.142  0.000  0.345  0.000
    occupations:
  0.993 -0.000 -0.000 -0.000 -0.000
 -0.000  0.993 -0.000  0.001 -0.002
 -0.000 -0.000  0.993 -0.002 -0.001
 -0.000  0.001 -0.002  0.992  0.000
 -0.000 -0.002 -0.001  0.000  0.992
   spin  2
    eigenvalues: 
  0.165  0.171  0.171  0.314  0.314
    eigenvectors:
  1.000  0.000  0.000  0.000  0.000
  0.000  0.367  0.022  0.583  0.028
  0.000  0.022  0.367  0.028  0.583
  0.000  0.059  0.552  0.043  0.346
  0.000  0.552  0.059  0.346  0.043
    occupations:
  0.165 -0.000 -0.000 -0.000 -0.000
 -0.000  0.258 -0.000 -0.037  0.059
 -0.000 -0.000  0.258  0.059  0.037
 -0.000 -0.037  0.059  0.226  0.000
 -0.000  0.059  0.037  0.000  0.226
atomic mag. moment =   3.82769
atom    6   Tr[ns(na)] (up, down, total) =   4.91608  1.23826  6.15434
   spin  1
    eigenvalues: 
  0.970  0.970  0.991  0.993  0.993
    eigenvectors:
  0.000  0.000  1.000  0.000  0.000
  0.009  0.643  0.000  0.071  0.277
  0.643  0.009  0.000  0.277  0.071
  0.179  0.169  0.000  0.124  0.528
  0.169  0.179  0.000  0.528  0.124
    occupations:
  0.991 -0.000 -0.000 -0.000 -0.000
 -0.000  0.978 -0.000 -0.006 -0.009
 -0.000 -0.000  0.978 -0.009  0.006
 -0.000 -0.006 -0.009  0.985  0.000
 -0.000 -0.009  0.006  0.000  0.985
   spin  2
    eigenvalues: 
  0.176  0.190  0.190  0.341  0.341
    eigenvectors:
  1.000  0.000  0.000  0.000  0.000
  0.000  0.005  0.263  0.004  0.728
  0.000  0.263  0.005  0.728  0.004
  0.000  0.172  0.560  0.117  0.151
  0.000  0.560  0.172  0.151  0.117
    occupations:
  0.176 -0.000 -0.000 -0.000 -0.000
 -0.000  0.301 -0.000  0.054  0.041
 -0.000 -0.000  0.301  0.041 -0.054
 -0.000  0.054  0.041  0.230  0.000
 -0.000  0.041 -0.054  0.000  0.230
atomic mag. moment =   3.67781
N of occupied +U levels =   36.857003
 --- exit write_ns ---

     negative rho (up, down):  1.235E-01 1.235E-01
 --- in v_hubbard ---
Hubbard energy    0.2168
 -------

     total cpu time spent up to now is     1518.3 secs

     total energy              =   -3194.82074914 Ry
     estimated scf accuracy    <       0.00002382 Ry

     total magnetization       =     0.00 Bohr mag/cell
     absolute magnetization    =    27.37 Bohr mag/cell

     iteration #  8     ecut=    35.00 Ry     beta= 0.40
     CG style diagonalization
     ethr =  8.10E-09,  avg # of iterations =  3.0
 --- enter write_ns ---
 LDA+U parameters:
alpha( 3) =  0.08000000
alpha( 4) =  0.08000000
atom    1   Tr[ns(na)] (up, down, total) =   1.13649  4.96277  6.09926
   spin  1
    eigenvalues: 
  0.165  0.171  0.171  0.314  0.314
    eigenvectors:
  1.000  0.000  0.000  0.000  0.000
  0.000  0.079  0.310  0.025  0.586
  0.000  0.310  0.079  0.586  0.025
  0.000  0.167  0.445  0.205  0.184
  0.000  0.445  0.167  0.184  0.205
    occupations:
  0.165 -0.000 -0.000 -0.000 -0.000
 -0.000  0.259 -0.000  0.037  0.059
 -0.000 -0.000  0.259  0.059 -0.037
 -0.000  0.037  0.059  0.227  0.000
 -0.000  0.059 -0.037  0.000  0.227
   spin  2
    eigenvalues: 
  0.990  0.990  0.993  0.994  0.994
    eigenvectors:
  0.000  0.000  1.000  0.000  0.000
  0.043  0.299  0.000  0.049  0.609
  0.299  0.043  0.000  0.609  0.049
  0.225  0.433  0.000  0.145  0.197
  0.433  0.225  0.000  0.197  0.145
    occupations:
  0.993 -0.000 -0.000 -0.000 -0.000
 -0.000  0.993 -0.000 -0.001 -0.002
 -0.000 -0.000  0.993 -0.002  0.001
 -0.000 -0.001 -0.002  0.992  0.000
 -0.000 -0.002  0.001  0.000  0.992
atomic mag. moment =  -3.82628
atom    2   Tr[ns(na)] (up, down, total) =   1.23996  4.91665  6.15661
   spin  1
    eigenvalues: 
  0.177  0.190  0.190  0.342  0.342
    eigenvectors:
  1.000  0.000  0.000  0.000  0.000
  0.000  0.196  0.071  0.244  0.488
  0.000  0.071  0.196  0.488  0.244
  0.000  0.102  0.631  0.000  0.267
  0.000  0.631  0.102  0.267  0.000
    occupations:
  0.177 -0.000 -0.000 -0.000 -0.000
 -0.000  0.301 -0.000 -0.054  0.040
 -0.000 -0.000  0.301  0.040  0.054
 -0.000 -0.054  0.040  0.230  0.000
 -0.000  0.040  0.054  0.000  0.230
   spin  2
    eigenvalues: 
  0.970  0.970  0.991  0.993  0.993
    eigenvectors:
  0.000  0.000  1.000  0.000  0.000
  0.479  0.173  0.000  0.298  0.050
  0.173  0.479  0.000  0.050  0.298
  0.004  0.344  0.000  0.044  0.608
  0.344  0.004  0.000  0.608  0.044
    occupations:
  0.991 -0.000 -0.000 -0.000 -0.000
 -0.000  0.978 -0.000  0.006 -0.008
 -0.000 -0.000  0.978 -0.008 -0.006
 -0.000  0.006 -0.008  0.985  0.000
 -0.000 -0.008 -0.006  0.000  0.985
atomic mag. moment =  -3.67669
atom    3   Tr[ns(na)] (up, down, total) =   1.25335  4.92085  6.17420
   spin  1
    eigenvalues: 
  0.195  0.195  0.204  0.330  0.330
    eigenvectors:
  0.000  0.000  1.000  0.000  0.000
  0.364  0.231  0.000  0.302  0.103
  0.231  0.364  0.000  0.103  0.302
  0.024  0.381  0.000  0.086  0.509
  0.381  0.024  0.000  0.509  0.086
    occupations:
  0.204 -0.000 -0.000 -0.000 -0.000
 -0.000  0.249 -0.000 -0.053  0.040
 -0.000 -0.000  0.249  0.040  0.053
 -0.000 -0.053  0.040  0.275  0.000
 -0.000  0.040  0.053  0.000  0.275
   spin  2
    eigenvalues: 
  0.974  0.974  0.990  0.991  0.991
    eigenvectors:
  0.000  0.000  1.000  0.000  0.000
  0.455  0.088  0.000  0.340  0.116
  0.088  0.455  0.000  0.116  0.340
  0.045  0.412  0.000  0.022  0.521
  0.412  0.045  0.000  0.521  0.022
    occupations:
  0.990 -0.000 -0.000 -0.000 -0.000
 -0.000  0.982 -0.000  0.006 -0.006
 -0.000 -0.000  0.982 -0.006 -0.006
 -0.000  0.006 -0.006  0.983  0.000
 -0.000 -0.006 -0.006  0.000  0.983
atomic mag. moment =  -3.66750
atom    4   Tr[ns(na)] (up, down, total) =   4.92094  1.25377  6.17471
   spin  1
    eigenvalues: 
  0.974  0.974  0.990  0.991  0.991
    eigenvectors:
  0.000  0.000  1.000  0.000  0.000
  0.010  0.533  0.000  0.050  0.407
  0.533  0.010  0.000  0.407  0.050
  0.189  0.267  0.000  0.126  0.418
  0.267  0.189  0.000  0.418  0.126
    occupations:
  0.990 -0.000 -0.000 -0.000 -0.000
 -0.000  0.982 -0.000 -0.006 -0.006
 -0.000 -0.000  0.982 -0.006  0.006
 -0.000 -0.006 -0.006  0.983  0.000
 -0.000 -0.006  0.006  0.000  0.983
   spin  2
    eigenvalues: 
  0.195  0.195  0.204  0.330  0.330
    eigenvectors:
  0.000  0.000  1.000  0.000  0.000
  0.000  0.595  0.000  0.002  0.403
  0.595  0.000  0.000  0.403  0.002
  0.160  0.245  0.000  0.183  0.412
  0.245  0.160  0.000  0.412  0.183
    occupations:
  0.204 -0.000 -0.000 -0.000 -0.000
 -0.000  0.250 -0.000  0.053  0.040
 -0.000 -0.000  0.250  0.040 -0.053
 -0.000  0.053  0.040  0.275  0.000
 -0.000  0.040 -0.053  0.000  0.275
atomic mag. moment =   3.66717
atom    5   Tr[ns(na)] (up, down, total) =   4.96278  1.13563  6.09841
   spin  1
    eigenvalues: 
  0.990  0.990  0.993  0.994  0.994
    eigenvectors:
  0.000  0.000  1.000  0.000  0.000
  0.338  0.003  0.000  0.446  0.213
  0.003  0.338  0.000  0.213  0.446
  0.143  0.516  0.000  0.000  0.341
  0.516  0.143  0.000  0.341  0.000
    occupations:
  0.993 -0.000 -0.000 -0.000 -0.000
 -0.000  0.993 -0.000  0.001 -0.002
 -0.000 -0.000  0.993 -0.002 -0.001
 -0.000  0.001 -0.002  0.992  0.000
 -0.000 -0.002 -0.001  0.000  0.992
   spin  2
    eigenvalues: 
  0.165  0.171  0.171  0.314  0.314
    eigenvectors:
  1.000  0.000  0.000  0.000  0.000
  0.000  0.367  0.022  0.584  0.028
  0.000  0.022  0.367  0.028  0.584
  0.000  0.060  0.552  0.043  0.345
  0.000  0.552  0.060  0.345  0.043
    occupations:
  0.165 -0.000 -0.000 -0.000 -0.000
 -0.000  0.259 -0.000 -0.037  0.059
 -0.000 -0.000  0.259  0.059  0.037
 -0.000 -0.037  0.059  0.227  0.000
 -0.000  0.059  0.037  0.000  0.227
atomic mag. moment =   3.82715
atom    6   Tr[ns(na)] (up, down, total) =   4.91670  1.23960  6.15630
   spin  1
    eigenvalues: 
  0.970  0.970  0.991  0.993  0.993
    eigenvectors:
  0.000  0.000  1.000  0.000  0.000
  0.009  0.643  0.000  0.071  0.277
  0.643  0.009  0.000  0.277  0.071
  0.180  0.168  0.000  0.124  0.528
  0.168  0.180  0.000  0.528  0.124
    occupations:
  0.991 -0.000 -0.000 -0.000 -0.000
 -0.000  0.978 -0.000 -0.006 -0.008
 -0.000 -0.000  0.978 -0.008  0.006
 -0.000 -0.006 -0.008  0.985  0.000
 -0.000 -0.008  0.006  0.000  0.985
   spin  2
    eigenvalues: 
  0.177  0.190  0.190  0.342  0.342
    eigenvectors:
  1.000  0.000  0.000  0.000  0.000
  0.000  0.005  0.262  0.004  0.728
  0.000  0.262  0.005  0.728  0.004
  0.000  0.172  0.560  0.117  0.150
  0.000  0.560  0.172  0.150  0.117
    occupations:
  0.177 -0.000 -0.000 -0.000 -0.000
 -0.000  0.301 -0.000  0.054  0.040
 -0.000 -0.000  0.301  0.040 -0.054
 -0.000  0.054  0.040  0.230  0.000
 -0.000  0.040 -0.054  0.000  0.230
atomic mag. moment =   3.67710
N of occupied +U levels =   36.859483
 --- exit write_ns ---

     negative rho (up, down):  1.235E-01 1.235E-01
 --- in v_hubbard ---
Hubbard energy    0.2168
 -------

     total cpu time spent up to now is     1625.8 secs

     total energy              =   -3194.82074931 Ry
     estimated scf accuracy    <       0.00002542 Ry

     total magnetization       =     0.00 Bohr mag/cell
     absolute magnetization    =    27.37 Bohr mag/cell

     iteration #  9     ecut=    35.00 Ry     beta= 0.40
     CG style diagonalization
     ethr =  8.10E-09,  avg # of iterations =  3.0
 --- enter write_ns ---
 LDA+U parameters:
alpha( 3) =  0.08000000
alpha( 4) =  0.08000000
atom    1   Tr[ns(na)] (up, down, total) =   1.13620  4.96281  6.09901
   spin  1
    eigenvalues: 
  0.165  0.171  0.171  0.314  0.314
    eigenvectors:
  1.000  0.000  0.000  0.000  0.000
  0.000  0.079  0.310  0.025  0.586
  0.000  0.310  0.079  0.586  0.025
  0.000  0.166  0.445  0.204  0.185
  0.000  0.445  0.166  0.185  0.204
    occupations:
  0.165 -0.000 -0.000 -0.000 -0.000
 -0.000  0.259 -0.000  0.037  0.059
 -0.000 -0.000  0.259  0.059 -0.037
 -0.000  0.037  0.059  0.227  0.000
 -0.000  0.059 -0.037  0.000  0.227
   spin  2
    eigenvalues: 
  0.990  0.990  0.993  0.994  0.994
    eigenvectors:
  0.000  0.000  1.000  0.000  0.000
  0.043  0.300  0.000  0.050  0.606
  0.300  0.043  0.000  0.606  0.050
  0.225  0.432  0.000  0.145  0.198
  0.432  0.225  0.000  0.198  0.145
    occupations:
  0.993 -0.000 -0.000 -0.000 -0.000
 -0.000  0.993 -0.000 -0.001 -0.002
 -0.000 -0.000  0.993 -0.002  0.001
 -0.000 -0.001 -0.002  0.992  0.000
 -0.000 -0.002  0.001  0.000  0.992
atomic mag. moment =  -3.82661
atom    2   Tr[ns(na)] (up, down, total) =   1.23743  4.91622  6.15365
   spin  1
    eigenvalues: 
  0.176  0.189  0.189  0.341  0.341
    eigenvectors:
  1.000  0.000  0.000  0.000  0.000
  0.000  0.198  0.071  0.247  0.485
  0.000  0.071  0.198  0.485  0.247
  0.000  0.101  0.630  0.000  0.268
  0.000  0.630  0.101  0.268  0.000
    occupations:
  0.176 -0.000 -0.000 -0.000 -0.000
 -0.000  0.300 -0.000 -0.054  0.041
 -0.000 -0.000  0.300  0.041  0.054
 -0.000 -0.054  0.041  0.230  0.000
 -0.000  0.041  0.054  0.000  0.230
   spin  2
    eigenvalues: 
  0.970  0.970  0.991  0.993  0.993
    eigenvectors:
  0.000  0.000  1.000  0.000  0.000
  0.478  0.174  0.000  0.298  0.050
  0.174  0.478  0.000  0.050  0.298
  0.004  0.344  0.000  0.044  0.608
  0.344  0.004  0.000  0.608  0.044
    occupations:
  0.991 -0.000 -0.000 -0.000 -0.000
 -0.000  0.978 -0.000  0.006 -0.009
 -0.000 -0.000  0.978 -0.009 -0.006
 -0.000  0.006 -0.009  0.985  0.000
 -0.000 -0.009 -0.006  0.000  0.985
atomic mag. moment =  -3.67879
atom    3   Tr[ns(na)] (up, down, total) =   1.25596  4.92144  6.17739
   spin  1
    eigenvalues: 
  0.195  0.195  0.205  0.330  0.330
    eigenvectors:
  0.000  0.000  1.000  0.000  0.000
  0.363  0.233  0.000  0.300  0.103
  0.233  0.363  0.000  0.103  0.300
  0.024  0.380  0.000  0.086  0.510
  0.380  0.024  0.000  0.510  0.086
    occupations:
  0.205 -0.000 -0.000 -0.000 -0.000
 -0.000  0.250 -0.000 -0.053  0.040
 -0.000 -0.000  0.250  0.040  0.053
 -0.000 -0.053  0.040  0.276  0.000
 -0.000  0.040  0.053  0.000  0.276
   spin  2
    eigenvalues: 
  0.974  0.974  0.990  0.991  0.991
    eigenvectors:
  0.000  0.000  1.000  0.000  0.000
  0.454  0.088  0.000  0.341  0.117
  0.088  0.454  0.000  0.117  0.341
  0.045  0.413  0.000  0.022  0.520
  0.413  0.045  0.000  0.520  0.022
    occupations:
  0.990 -0.000 -0.000 -0.000 -0.000
 -0.000  0.982 -0.000  0.006 -0.006
 -0.000 -0.000  0.982 -0.006 -0.006
 -0.000  0.006 -0.006  0.983  0.000
 -0.000 -0.006 -0.006  0.000  0.983
atomic mag. moment =  -3.66548
atom    4   Tr[ns(na)] (up, down, total) =   4.92148  1.25598  6.17746
   spin  1
    eigenvalues: 
  0.974  0.974  0.990  0.991  0.991
    eigenvectors:
  0.000  0.000  1.000  0.000  0.000
  0.010  0.532  0.000  0.049  0.408
  0.532  0.010  0.000  0.408  0.049
  0.190  0.268  0.000  0.126  0.416
  0.268  0.190  0.000  0.416  0.126
[...]
     atom:   29    charge:    5.2923    magn:    0.2025    constr:    0.0000
     atom:   30    charge:    5.2923    magn:    0.2025    constr:    0.0000

     total cpu time spent up to now is     2186.3 secs

     End of self-consistent calculation

 ------ SPIN UP ------------


          k = 0.0000 0.0000 0.0000 (  8497 PWs)   bands (ev):

   -78.5560 -78.2615 -78.1403 -73.5414 -73.4631 -73.3704 -44.5729 -44.5190
   -44.5190 -44.2522 -44.2522 -44.2432 -44.2398 -44.0794 -44.0794 -39.6910
   -39.6468 -39.6468 -39.6038 -39.5738 -39.5738 -39.5461 -39.4740 -39.4740
   -10.7123 -10.7123 -10.6888 -10.6888 -10.6742 -10.6615 -10.6451 -10.6451
   -10.6297 -10.6297 -10.6224 -10.6224 -10.6014 -10.6014 -10.5761 -10.5658
   -10.5548 -10.5548 -10.5457 -10.5457 -10.5290 -10.5290 -10.5235 -10.5163
   -10.5163 -10.5123 -10.4914 -10.4914 -10.4802 -10.4802  -7.3815  -6.9921
    -6.8580  -6.0414  -5.9611  -5.5886  -5.5884  -5.4899  -5.4898  -5.4233
    -5.4233  -5.3998  -5.2984  -5.2983  -5.0992  -5.0992  -4.9434  -4.9433
     1.5845   1.7005   1.7310   2.4209   2.5446   3.3224   5.4185   5.4185
     5.4786   5.9526   5.9527   6.0196   6.0781   6.0781   6.2417   6.3139
     6.3140   6.5229   6.5534   6.5570   6.5570   6.7081   6.7082   6.8726
     6.8727   7.0009   7.1311   7.2658   7.2658   7.6535   7.6536   7.6749
     7.8282   8.1888   8.1888   8.4136   8.5227   8.5227   8.6969   8.6969
     8.9181   9.1034   9.1034   9.1554   9.2644   9.2644   9.3330   9.4424
     9.4425   9.4493   9.5621   9.5621   9.7214   9.7215  10.0271  10.0271
    10.0722  10.0723  10.0936  10.1375  10.1375  10.5018  10.5018  10.6430
    10.8498  10.9875  11.0616  11.0616  11.1563  11.1833  11.2947  11.8932
    11.8933  12.6435  12.6436  12.9555  12.9555  13.1297  13.2091  13.2205
    13.2206  13.2490  13.3915  13.3915  14.2529  14.2529  14.9979  14.9980
    15.5142  15.6340  15.6341  15.7275  15.7876  15.9158  17.1381  17.1382
    17.1630  17.1631  17.2628  17.2628  17.5433  17.6083  17.6786  17.6786
    17.7359  17.7359  18.1509  18.1509  19.5671  20.5873  21.1182  21.2479
    21.5327  21.5327  22.0559  22.1942  22.5675  22.5675  22.6504  22.6504
    22.7710  22.7710  23.9887  23.9887  24.0560  24.0561  24.1576  24.3837

     occupation numbers 
     1.0000   1.0000   1.0000   1.0000   1.0000   1.0000   1.0000   1.0000
     1.0000   1.0000   1.0000   1.0000   1.0000   1.0000   1.0000   1.0000
     1.0000   1.0000   1.0000   1.0000   1.0000   1.0000   1.0000   1.0000
     1.0000   1.0000   1.0000   1.0000   1.0000   1.0000   1.0000   1.0000
     1.0000   1.0000   1.0000   1.0000   1.0000   1.0000   1.0000   1.0000
     1.0000   1.0000   1.0000   1.0000   1.0000   1.0000   1.0000   1.0000
     1.0000   1.0000   1.0000   1.0000   1.0000   1.0000   1.0000   1.0000
     1.0000   1.0000   1.0000   1.0000   1.0000   1.0000   1.0000   1.0000
     1.0000   1.0000   1.0000   1.0000   1.0000   1.0000   1.0000   1.0000
     1.0000   1.0000   1.0000   1.0000   1.0000   1.0000   1.0000   1.0000
     1.0000   1.0000   1.0000   1.0000   1.0000   1.0000   1.0000   1.0000
     1.0000   1.0000   1.0000   1.0000   1.0000   1.0000   1.0000   1.0000
     1.0000   1.0000   1.0000   1.0000   1.0000   1.0000   1.0000   1.0000
     1.0000   1.0000   1.0000   1.0000   1.0000   1.0000   1.0000   1.0000
     1.0000   1.0000   1.0000   1.0000   1.0000   1.0000   1.0000   1.0000
     1.0000   1.0000   1.0000   1.0000   1.0000   1.0000   1.0000   1.0000
     1.0000   1.0000   1.0000   1.0000   1.0000   1.0000   1.0000   1.0000
     1.0000   1.0000   1.0000   1.0000   1.0000   1.0000   1.0000   1.0000
     1.0000   1.0352   1.0352  -0.0280  -0.0280  -0.0026  -0.0002  -0.0001
    -0.0001  -0.0000  -0.0000  -0.0000  -0.0000  -0.0000  -0.0000  -0.0000
    -0.0000  -0.0000  -0.0000  -0.0000  -0.0000  -0.0000  -0.0000  -0.0000
    -0.0000  -0.0000  -0.0000  -0.0000  -0.0000  -0.0000  -0.0000  -0.0000
    -0.0000  -0.0000  -0.0000  -0.0000  -0.0000  -0.0000  -0.0000  -0.0000
    -0.0000  -0.0000  -0.0000  -0.0000  -0.0000  -0.0000  -0.0000  -0.0000
    -0.0000  -0.0000  -0.0000  -0.0000  -0.0000  -0.0000  -0.0000  -0.0000

          k = 0.0000-0.5774 0.0000 (  8560 PWs)   bands (ev):

   -78.5560 -78.2615 -78.1403 -73.5414 -73.4631 -73.3704 -44.5728 -44.5191
   -44.5190 -44.2523 -44.2522 -44.2432 -44.2397 -44.0795 -44.0794 -39.6910
   -39.6469 -39.6469 -39.6037 -39.5739 -39.5738 -39.5460 -39.4741 -39.4741
   -10.7088 -10.6893 -10.6769 -10.6720 -10.6664 -10.6600 -10.6433 -10.6278
   -10.6227 -10.6176 -10.6098 -10.6082 -10.6042 -10.6006 -10.5743 -10.5652
   -10.5595 -10.5549 -10.5480 -10.5470 -10.5444 -10.5369 -10.5324 -10.5207
   -10.5196 -10.5094 -10.5073 -10.4974 -10.4946 -10.4834  -6.6708  -6.6391
    -6.4759  -6.2723  -6.2258  -5.8833  -5.7992  -5.7393  -5.6222  -5.5544
    -5.4914  -5.4700  -5.3942  -5.3256  -5.2054  -5.1471  -5.0435  -4.9671
     1.5204   1.7745   1.8171   2.0713   2.1470   2.3195   5.5865   5.8666
     5.8890   6.0346   6.2131   6.2643   6.3396   6.3786   6.4041   6.5813
     6.6212   6.6852   6.8072   6.8537   7.0942   7.1222   7.1999   7.3144
     7.3589   7.4890   7.5757   7.6152   7.7549   7.8573   7.8792   7.9907
     8.0457   8.1922   8.2305   8.3488   8.3659   8.3861   8.5108   8.5750
     8.7317   8.8065   8.8949   9.0055   9.0477   9.1280   9.1623   9.2452
     9.2765   9.3763   9.4458   9.5389   9.6495   9.7489   9.8289   9.8542
     9.8779   9.9643   9.9955  10.1032  10.1756  10.2670  10.3074  10.5265
    10.7062  10.7861  11.0003  11.0809  11.1796  11.3611  11.5461  11.8440
    11.8754  11.9448  12.5678  12.9294  13.0555  13.1319  13.2099  13.2482
    13.3333  13.3751  13.5378  13.6531  14.2660  14.3050  14.5157  14.7930
    14.8416  15.2120  15.4021  15.6938  15.7625  15.8791  15.9604  16.0185
    16.1220  16.1675  16.2564  16.9867  17.1417  17.2663  17.3355  17.4070
    17.4867  17.5482  17.6314  17.7068  21.3498  21.5564  21.8515  22.2610
    22.4366  22.5367  22.9099  22.9739  23.0484  23.1998  23.3154  23.3474
    23.4269  23.4622  23.9387  23.9664  24.1545  24.1847  24.3224  24.4396

     occupation numbers 
     1.0000   1.0000   1.0000   1.0000   1.0000   1.0000   1.0000   1.0000
     1.0000   1.0000   1.0000   1.0000   1.0000   1.0000   1.0000   1.0000
     1.0000   1.0000   1.0000   1.0000   1.0000   1.0000   1.0000   1.0000
     1.0000   1.0000   1.0000   1.0000   1.0000   1.0000   1.0000   1.0000
     1.0000   1.0000   1.0000   1.0000   1.0000   1.0000   1.0000   1.0000
     1.0000   1.0000   1.0000   1.0000   1.0000   1.0000   1.0000   1.0000
     1.0000   1.0000   1.0000   1.0000   1.0000   1.0000   1.0000   1.0000
     1.0000   1.0000   1.0000   1.0000   1.0000   1.0000   1.0000   1.0000
     1.0000   1.0000   1.0000   1.0000   1.0000   1.0000   1.0000   1.0000
     1.0000   1.0000   1.0000   1.0000   1.0000   1.0000   1.0000   1.0000
     1.0000   1.0000   1.0000   1.0000   1.0000   1.0000   1.0000   1.0000
     1.0000   1.0000   1.0000   1.0000   1.0000   1.0000   1.0000   1.0000
     1.0000   1.0000   1.0000   1.0000   1.0000   1.0000   1.0000   1.0000
     1.0000   1.0000   1.0000   1.0000   1.0000   1.0000   1.0000   1.0000
     1.0000   1.0000   1.0000   1.0000   1.0000   1.0000   1.0000   1.0000
     1.0000   1.0000   1.0000   1.0000   1.0000   1.0000   1.0000   1.0000
     1.0000   1.0000   1.0000   1.0000   1.0000   1.0000   1.0000   1.0000
     1.0000   1.0000   1.0000   1.0000   1.0000   1.0000   1.0000   1.0000
     1.0000   1.0000   1.0137   0.0009  -0.0158  -0.0024  -0.0002  -0.0000
    -0.0000  -0.0000  -0.0000  -0.0000  -0.0000  -0.0000  -0.0000  -0.0000
    -0.0000  -0.0000  -0.0000  -0.0000  -0.0000  -0.0000  -0.0000  -0.0000
    -0.0000  -0.0000  -0.0000  -0.0000  -0.0000  -0.0000  -0.0000  -0.0000
    -0.0000  -0.0000  -0.0000  -0.0000  -0.0000  -0.0000  -0.0000  -0.0000
    -0.0000  -0.0000  -0.0000  -0.0000  -0.0000  -0.0000  -0.0000  -0.0000
    -0.0000  -0.0000  -0.0000  -0.0000  -0.0000  -0.0000  -0.0000  -0.0000

 ------ SPIN DOWN ----------


          k = 0.0000 0.0000 0.0000 (  8497 PWs)   bands (ev):

   -78.5559 -78.2621 -78.1399 -73.5414 -73.4626 -73.3708 -44.5729 -44.5189
   -44.5189 -44.2527 -44.2527 -44.2428 -44.2403 -44.0790 -44.0790 -39.6909
   -39.6468 -39.6468 -39.6032 -39.5732 -39.5732 -39.5464 -39.4744 -39.4744
   -10.7121 -10.7121 -10.6890 -10.6890 -10.6738 -10.6619 -10.6449 -10.6449
   -10.6297 -10.6297 -10.6228 -10.6228 -10.6012 -10.6012 -10.5765 -10.5654
   -10.5548 -10.5548 -10.5456 -10.5456 -10.5291 -10.5291 -10.5238 -10.5162
   -10.5162 -10.5120 -10.4917 -10.4917 -10.4800 -10.4800  -7.3816  -6.9922
    -6.8579  -6.0413  -5.9612  -5.5883  -5.5881  -5.4901  -5.4900  -5.4234
    -5.4234  -5.4000  -5.2988  -5.2986  -5.0992  -5.0992  -4.9431  -4.9430
     1.5846   1.7004   1.7309   2.4209   2.5446   3.3224   5.4184   5.4184
     5.4785   5.9525   5.9526   6.0196   6.0782   6.0782   6.2418   6.3138
     6.3139   6.5227   6.5531   6.5569   6.5569   6.7077   6.7078   6.8730
     6.8731   7.0009   7.1312   7.2659   7.2659   7.6535   7.6535   7.6750
     7.8286   8.1888   8.1889   8.4136   8.5226   8.5227   8.6968   8.6969
     8.9180   9.1033   9.1033   9.1553   9.2644   9.2644   9.3330   9.4425
     9.4426   9.4492   9.5622   9.5623   9.7215   9.7215  10.0272  10.0272
    10.0723  10.0724  10.0938  10.1375  10.1376  10.5019  10.5019  10.6436
    10.8496  10.9874  11.0619  11.0619  11.1562  11.1834  11.2947  11.8936
    11.8936  12.6437  12.6438  12.9555  12.9555  13.1296  13.2091  13.2206
    13.2206  13.2490  13.3913  13.3913  14.2527  14.2527  14.9977  14.9977
    15.5142  15.6339  15.6339  15.7271  15.7878  15.9158  17.1383  17.1384
    17.1634  17.1635  17.2623  17.2624  17.5433  17.6083  17.6786  17.6786
    17.7358  17.7358  18.1508  18.1508  19.5678  20.5872  21.1187  21.2474
    21.5329  21.5329  22.0558  22.1940  22.5677  22.5677  22.6505  22.6505
    22.7708  22.7709  23.9886  23.9887  24.0561  24.0561  24.1576  24.3849

     occupation numbers 
     1.0000   1.0000   1.0000   1.0000   1.0000   1.0000   1.0000   1.0000
     1.0000   1.0000   1.0000   1.0000   1.0000   1.0000   1.0000   1.0000
     1.0000   1.0000   1.0000   1.0000   1.0000   1.0000   1.0000   1.0000
     1.0000   1.0000   1.0000   1.0000   1.0000   1.0000   1.0000   1.0000
     1.0000   1.0000   1.0000   1.0000   1.0000   1.0000   1.0000   1.0000
     1.0000   1.0000   1.0000   1.0000   1.0000   1.0000   1.0000   1.0000
     1.0000   1.0000   1.0000   1.0000   1.0000   1.0000   1.0000   1.0000
     1.0000   1.0000   1.0000   1.0000   1.0000   1.0000   1.0000   1.0000
     1.0000   1.0000   1.0000   1.0000   1.0000   1.0000   1.0000   1.0000
     1.0000   1.0000   1.0000   1.0000   1.0000   1.0000   1.0000   1.0000
     1.0000   1.0000   1.0000   1.0000   1.0000   1.0000   1.0000   1.0000
     1.0000   1.0000   1.0000   1.0000   1.0000   1.0000   1.0000   1.0000
     1.0000   1.0000   1.0000   1.0000   1.0000   1.0000   1.0000   1.0000
     1.0000   1.0000   1.0000   1.0000   1.0000   1.0000   1.0000   1.0000
     1.0000   1.0000   1.0000   1.0000   1.0000   1.0000   1.0000   1.0000
     1.0000   1.0000   1.0000   1.0000   1.0000   1.0000   1.0000   1.0000
     1.0000   1.0000   1.0000   1.0000   1.0000   1.0000   1.0000   1.0000
     1.0000   1.0000   1.0000   1.0000   1.0000   1.0000   1.0000   1.0000
     1.0000   1.0353   1.0353  -0.0279  -0.0279  -0.0026  -0.0002  -0.0001
    -0.0001  -0.0000  -0.0000  -0.0000  -0.0000  -0.0000  -0.0000  -0.0000
    -0.0000  -0.0000  -0.0000  -0.0000  -0.0000  -0.0000  -0.0000  -0.0000
    -0.0000  -0.0000  -0.0000  -0.0000  -0.0000  -0.0000  -0.0000  -0.0000
    -0.0000  -0.0000  -0.0000  -0.0000  -0.0000  -0.0000  -0.0000  -0.0000
    -0.0000  -0.0000  -0.0000  -0.0000  -0.0000  -0.0000  -0.0000  -0.0000
    -0.0000  -0.0000  -0.0000  -0.0000  -0.0000  -0.0000  -0.0000  -0.0000

          k = 0.0000-0.5774 0.0000 (  8560 PWs)   bands (ev):

   -78.5559 -78.2621 -78.1399 -73.5414 -73.4626 -73.3708 -44.5728 -44.5190
   -44.5189 -44.2528 -44.2527 -44.2427 -44.2403 -44.0791 -44.0790 -39.6909
   -39.6469 -39.6469 -39.6031 -39.5733 -39.5733 -39.5464 -39.4745 -39.4744
   -10.7086 -10.6895 -10.6764 -10.6716 -10.6669 -10.6604 -10.6432 -10.6275
   -10.6227 -10.6180 -10.6101 -10.6085 -10.6037 -10.6005 -10.5747 -10.5647
   -10.5597 -10.5549 -10.5481 -10.5468 -10.5447 -10.5367 -10.5325 -10.5207
   -10.5197 -10.5092 -10.5075 -10.4972 -10.4948 -10.4832  -6.6707  -6.6393
    -6.4760  -6.2723  -6.2257  -5.8832  -5.7991  -5.7393  -5.6223  -5.5543
    -5.4914  -5.4700  -5.3946  -5.3258  -5.2053  -5.1472  -5.0434  -4.9669
     1.5203   1.7744   1.8172   2.0714   2.1468   2.3196   5.5863   5.8661
     5.8891   6.0343   6.2129   6.2641   6.3398   6.3788   6.4042   6.5812
     6.6210   6.6854   6.8072   6.8533   7.0943   7.1222   7.1999   7.3143
     7.3591   7.4889   7.5758   7.6152   7.7549   7.8574   7.8793   7.9907
     8.0455   8.1923   8.2305   8.3487   8.3658   8.3863   8.5110   8.5753
     8.7317   8.8066   8.8948   9.0054   9.0478   9.1281   9.1623   9.2453
     9.2765   9.3764   9.4457   9.5389   9.6493   9.7488   9.8290   9.8541
     9.8781   9.9644   9.9955  10.1035  10.1756  10.2675  10.3077  10.5264
    10.7064  10.7863  11.0003  11.0809  11.1797  11.3613  11.5462  11.8443
    11.8755  11.9452  12.5680  12.9294  13.0553  13.1318  13.2100  13.2484
    13.3332  13.3750  13.5377  13.6527  14.2659  14.3049  14.5155  14.7928
    14.8414  15.2119  15.4021  15.6938  15.7629  15.8789  15.9603  16.0183
    16.1222  16.1673  16.2564  16.9867  17.1417  17.2664  17.3355  17.4070
    17.4868  17.5479  17.6312  17.7070  21.3508  21.5572  21.8520  22.2607
    22.4362  22.5361  22.9096  22.9739  23.0483  23.2004  23.3156  23.3472
    23.4266  23.4621  23.9388  23.9666  24.1547  24.1845  24.3226  24.4394

     occupation numbers 
     1.0000   1.0000   1.0000   1.0000   1.0000   1.0000   1.0000   1.0000
     1.0000   1.0000   1.0000   1.0000   1.0000   1.0000   1.0000   1.0000
     1.0000   1.0000   1.0000   1.0000   1.0000   1.0000   1.0000   1.0000
     1.0000   1.0000   1.0000   1.0000   1.0000   1.0000   1.0000   1.0000
     1.0000   1.0000   1.0000   1.0000   1.0000   1.0000   1.0000   1.0000
     1.0000   1.0000   1.0000   1.0000   1.0000   1.0000   1.0000   1.0000
     1.0000   1.0000   1.0000   1.0000   1.0000   1.0000   1.0000   1.0000
     1.0000   1.0000   1.0000   1.0000   1.0000   1.0000   1.0000   1.0000
     1.0000   1.0000   1.0000   1.0000   1.0000   1.0000   1.0000   1.0000
     1.0000   1.0000   1.0000   1.0000   1.0000   1.0000   1.0000   1.0000
     1.0000   1.0000   1.0000   1.0000   1.0000   1.0000   1.0000   1.0000
     1.0000   1.0000   1.0000   1.0000   1.0000   1.0000   1.0000   1.0000
     1.0000   1.0000   1.0000   1.0000   1.0000   1.0000   1.0000   1.0000
     1.0000   1.0000   1.0000   1.0000   1.0000   1.0000   1.0000   1.0000
     1.0000   1.0000   1.0000   1.0000   1.0000   1.0000   1.0000   1.0000
     1.0000   1.0000   1.0000   1.0000   1.0000   1.0000   1.0000   1.0000
     1.0000   1.0000   1.0000   1.0000   1.0000   1.0000   1.0000   1.0000
     1.0000   1.0000   1.0000   1.0000   1.0000   1.0000   1.0000   1.0000
     1.0000   1.0000   1.0137   0.0009  -0.0159  -0.0024  -0.0002  -0.0000
    -0.0000  -0.0000  -0.0000  -0.0000  -0.0000  -0.0000  -0.0000  -0.0000
    -0.0000  -0.0000  -0.0000  -0.0000  -0.0000  -0.0000  -0.0000  -0.0000
    -0.0000  -0.0000  -0.0000  -0.0000  -0.0000  -0.0000  -0.0000  -0.0000
    -0.0000  -0.0000  -0.0000  -0.0000  -0.0000  -0.0000  -0.0000  -0.0000
    -0.0000  -0.0000  -0.0000  -0.0000  -0.0000  -0.0000  -0.0000  -0.0000
    -0.0000  -0.0000  -0.0000  -0.0000  -0.0000  -0.0000  -0.0000  -0.0000

     the Fermi energy is    12.8154 ev

!    total energy              =   -3194.82075228 Ry
     estimated scf accuracy    <       0.00000002 Ry
     smearing contrib. (-TS)   =       0.00266520 Ry
     internal energy E=F+TS    =   -3194.82341748 Ry

     The total energy is F=E-TS. E is the sum of the following terms:
     one-electron contribution =   -1266.96691348 Ry
     hartree contribution      =     826.05707360 Ry
     xc contribution           =    -695.64898612 Ry
     ewald contribution        =   -2058.48132819 Ry
     Hubbard energy            =       0.21673671 Ry

     total magnetization       =     0.00 Bohr mag/cell
     absolute magnetization    =    27.37 Bohr mag/cell

     convergence has been achieved in  13 iterations

     Writing output data file /home/aldair1809/Documentos/QE/4BFO/hubbard_pbe_mp/lr_0.08/bifeo3-Uhubbard.save/

     init_run     :     14.14s CPU     15.59s WALL (       1 calls)
     electrons    :   2134.09s CPU   2169.88s WALL (       1 calls)

     Called by init_run:
     wfcinit      :     11.42s CPU     12.43s WALL (       1 calls)
     potinit      :      0.16s CPU      0.23s WALL (       1 calls)
     hinit0       :      1.27s CPU      1.32s WALL (       1 calls)

     Called by electrons:
     c_bands      :   2005.04s CPU   2032.54s WALL (      13 calls)
     sum_band     :    115.19s CPU    120.14s WALL (      13 calls)
     v_of_rho     :      2.09s CPU      2.18s WALL (      14 calls)
     v_h          :      0.06s CPU      0.06s WALL (      14 calls)
     v_xc         :      2.03s CPU      2.11s WALL (      14 calls)
     newd         :     12.28s CPU     15.65s WALL (      14 calls)
     mix_rho      :      0.43s CPU      0.45s WALL (      13 calls)

     Called by c_bands:
     init_us_2    :      1.53s CPU      1.57s WALL (     108 calls)
     ccgdiagg     :   1652.80s CPU   1676.04s WALL (      56 calls)
     wfcrot       :    350.86s CPU    355.09s WALL (      52 calls)

     Called by sum_band:
     sum_band:wei :      0.04s CPU      0.04s WALL (      13 calls)
     sum_band:loo :     91.07s CPU     92.84s WALL (      13 calls)
     sum_band:buf :      0.25s CPU      0.25s WALL (      52 calls)
     sum_band:ini :      0.74s CPU      0.74s WALL (      52 calls)
     sum_band:cal :     68.18s CPU     68.72s WALL (      52 calls)
     sum_band:bec :      0.35s CPU      0.35s WALL (      52 calls)
     addusdens    :     18.54s CPU     21.64s WALL (      13 calls)
     addusd:skk   :      0.07s CPU      0.08s WALL (      52 calls)
     addusd:dgemm :      9.65s CPU     12.21s WALL (     104 calls)
     addusd:qvan2 :      8.60s CPU      8.63s WALL (     104 calls)

     Called by *cgdiagg:
     h_psi        :    889.17s CPU    907.51s WALL (   37151 calls)
     s_psi        :    609.17s CPU    612.90s WALL (   74254 calls)

     Called by h_psi:
     h_psi:calbec :    314.59s CPU    319.55s WALL (   37151 calls)
     vloc_psi     :    184.00s CPU    194.54s WALL (   37151 calls)
     add_vuspsi   :    337.26s CPU    339.24s WALL (   37151 calls)
     vhpsi        :     51.56s CPU     52.55s WALL (   37151 calls)
     hs_1psi      :    965.12s CPU    981.75s WALL (   37099 calls)
     s_1psi       :    513.68s CPU    518.14s WALL (   37099 calls)

     General routines
     calbec       :    668.42s CPU    677.86s WALL (  111509 calls)
     fft          :      0.95s CPU      1.03s WALL (     292 calls)
     ffts         :      0.09s CPU      0.10s WALL (      26 calls)
     fftw         :    175.83s CPU    186.74s WALL (  105398 calls)
     davcio       :      0.00s CPU      0.12s WALL (       4 calls)

     Parallel routines
     fft_scatt_xy :     30.82s CPU     33.24s WALL (  105716 calls)
     fft_scatt_yz :     31.48s CPU     35.50s WALL (  105716 calls)

     Hubbard U routines
     new_ns       :      4.79s CPU      4.85s WALL (      13 calls)
     new_ns       :      4.79s CPU      4.85s WALL (      13 calls)
     vhpsi        :     51.56s CPU     52.55s WALL (   37151 calls)

     PWSCF        :  35m49.37s CPU  36m27.23s WALL


   This run was terminated on:   0: 6:16  27Oct2024            

=------------------------------------------------------------------------------=
   JOB DONE.
=------------------------------------------------------------------------------=
