
     Program PWSCF v.6.7MaX starts on 26Oct2024 at 18:43: 8 

     This program is part of the open-source Quantum ESPRESSO suite
     for quantum simulation of materials; please cite
         "P. Giannozzi et al., J. Phys.:Condens. Matter 21 395502 (2009);
         "P. Giannozzi et al., J. Phys.:Condens. Matter 29 465901 (2017);
          URL http://www.quantum-espresso.org", 
     in publications or presentations arising from this work. More details at
     http://www.quantum-espresso.org/quote

     Parallel version (MPI), running on     4 processors

     MPI processes distributed on     1 nodes
     R & G space division:  proc/nbgrp/npool/nimage =       4
     Waiting for input...
     Reading input from standard input

     Current dimensions of program PWSCF are:
     Max number of different atomic species (ntypx) = 10
     Max number of k-points (npk) =  40000
     Max angular momentum in pseudopotentials (lmaxx) =  3

     Subspace diagonalization in iterative solution of the eigenvalue problem:
     one sub-group per band group will be used
     scalapack distributed-memory algorithm (size of sub-group:  2*  2 procs)


     Parallelization info
     --------------------
     sticks:   dense  smooth     PW     G-vecs:    dense   smooth      PW
     Min         228     228     63                13562    13562    2037
     Max         229     229     64                13569    13569    2046
     Sum         913     913    253                54257    54257    8159



     bravais-lattice index     =            4
     lattice parameter (alat)  =      10.4531  a.u.
     unit-cell volume          =    2440.6662 (a.u.)^3
     number of atoms/cell      =           30
     number of atomic types    =            4
     number of electrons       =       294.00
     number of Kohn-Sham states=          200
     kinetic-energy cutoff     =      30.0000  Ry
     charge density cutoff     =     120.0000  Ry
     scf convergence threshold =      1.0E-07
     mixing beta               =       0.4000
     number of iterations used =            8  plain     mixing
     Exchange-correlation=  SLA  PW   PBX  PBC
                           (   1   4   3   4   0   0   0)

     celldm(1)=  10.453102  celldm(2)=   0.000000  celldm(3)=   2.467415
     celldm(4)=   0.000000  celldm(5)=   0.000000  celldm(6)=   0.000000

     crystal axes: (cart. coord. in units of alat)
               a(1) = (   1.000000   0.000000   0.000000 )  
               a(2) = (  -0.500000   0.866025   0.000000 )  
               a(3) = (   0.000000   0.000000   2.467415 )  

     reciprocal axes: (cart. coord. in units 2 pi/alat)
               b(1) = (  1.000000  0.577350 -0.000000 )  
               b(2) = (  0.000000  1.154701  0.000000 )  
               b(3) = (  0.000000 -0.000000  0.405282 )  


     PseudoPot. # 1 for O  read from file:
     /home/aldair1809/Programas/QE/q-e-qe-7.3/pseudo/o_pbe_v1.2.uspp.F.UPF
     MD5 check sum: 734c27235a0248c51dbae37a1fbe46ec
     Pseudo is Ultrasoft + core correction, Zval =  6.0
     Generated by new atomic code, or converted to UPF format
     Using radial grid of  737 points,  5 beta functions with: 
                l(1) =   0
                l(2) =   0
                l(3) =   1
                l(4) =   1
                l(5) =   2
     Q(r) pseudized with  8 coefficients,  rinner =    0.900   0.900   0.900
                                                       0.900   0.900

     PseudoPot. # 2 for Bi read from file:
     /home/aldair1809/Programas/QE/q-e-qe-7.3/pseudo/bi_pbe_v1.uspp.F.UPF
     MD5 check sum: cceb9f28ec65b6d7ff33140f5b0b1758
     Pseudo is Ultrasoft + core correction, Zval = 15.0
     Generated by new atomic code, or converted to UPF format
     Using radial grid of  899 points,  6 beta functions with: 
                l(1) =   0
                l(2) =   0
                l(3) =   1
                l(4) =   1
                l(5) =   2
                l(6) =   2
     Q(r) pseudized with  6 coefficients,  rinner =    1.000   1.000   1.000
                                                       1.000   1.000

     PseudoPot. # 3 for Fe read from file:
     /home/aldair1809/Programas/QE/q-e-qe-7.3/pseudo/fe_pbe_v1.5.uspp.F.UPF
     MD5 check sum: a130daea23fe5165f5d574ae7f82ed95
     Pseudo is Ultrasoft + core correction, Zval = 16.0
     Generated by new atomic code, or converted to UPF format
     Using radial grid of  861 points,  6 beta functions with: 
                l(1) =   0
                l(2) =   0
                l(3) =   1
                l(4) =   1
                l(5) =   2
                l(6) =   2
     Q(r) pseudized with  8 coefficients,  rinner =    1.000   1.000   1.000
                                                       1.000   1.000

     PseudoPot. # 4 for Fe read from file:
     /home/aldair1809/Programas/QE/q-e-qe-7.3/pseudo/fe_pbe_v1.5.uspp.F.UPF
     MD5 check sum: a130daea23fe5165f5d574ae7f82ed95
     Pseudo is Ultrasoft + core correction, Zval = 16.0
     Generated by new atomic code, or converted to UPF format
     Using radial grid of  861 points,  6 beta functions with: 
                l(1) =   0
                l(2) =   0
                l(3) =   1
                l(4) =   1
                l(5) =   2
                l(6) =   2
     Q(r) pseudized with  8 coefficients,  rinner =    1.000   1.000   1.000
                                                       1.000   1.000

     atomic species   valence    mass     pseudopotential
        O              6.00    15.99940     O ( 1.00)
        Bi            15.00   208.98040     Bi( 1.00)
        Fe1           16.00    55.84500     Fe( 1.00)
        Fe2           16.00    55.84500     Fe( 1.00)

     Starting magnetic structure 
     atomic species   magnetization
        O            0.000
        Bi           0.000
        Fe1         -0.800
        Fe2          0.800


     Simplified LDA+U calculation (l_max = 2) with parameters (eV):
     atomic species    L          U    alpha       J0     beta
        Fe1            2     0.5000   0.2000   0.0000   0.0000
        Fe2            2     0.5000   0.2000   0.0000   0.0000



      3 Sym. Ops. (no inversion) found


                                    s                        frac. trans.

      isym =  1     identity                                     

 cryst.   s( 1) = (     1          0          0      )
                  (     0          1          0      )
                  (     0          0          1      )

 cart.    s( 1) = (  1.0000000  0.0000000  0.0000000 )
                  (  0.0000000  1.0000000  0.0000000 )
                  (  0.0000000  0.0000000  1.0000000 )


      isym =  2     120 deg rotation - cryst. axis [0,0,1]       

 cryst.   s( 2) = (     0          1          0      )
                  (    -1         -1          0      )
                  (     0          0          1      )

 cart.    s( 2) = ( -0.5000000 -0.8660254  0.0000000 )
                  (  0.8660254 -0.5000000  0.0000000 )
                  (  0.0000000  0.0000000  1.0000000 )


      isym =  3     120 deg rotation - cryst. axis [0,0,-1]      

 cryst.   s( 3) = (    -1         -1          0      )
                  (     1          0          0      )
                  (     0          0          1      )

 cart.    s( 3) = ( -0.5000000  0.8660254  0.0000000 )
                  ( -0.8660254 -0.5000000  0.0000000 )
                  (  0.0000000  0.0000000  1.0000000 )


     point group C_3 (3)    
     there are  3 classes
     the character table:

       E     C3    C3^2 
A      1.00  1.00  1.00
E      1.00 -0.50 -0.50
E*     1.00 -0.50 -0.50
     imaginary part
A      0.00  0.00  0.00
E      0.00  0.87 -0.87
E*     0.00 -0.87  0.87

     the symmetry operations in each class and the name of the first element:

     E        1
          identity                                               
     C3       2
          120 deg rotation - cryst. axis [0,0,1]                 
     C3^2     3
          120 deg rotation - cryst. axis [0,0,-1]                

   Cartesian axes

     site n.     atom                  positions (alat units)
         1           Fe1 tau(   1) = (   0.0000000   0.0000000   1.9173194  )
         2           Fe1 tau(   2) = (  -0.0000005   0.5773506   2.3408318  )
         3           Fe1 tau(   3) = (   0.5000005   0.2886748   1.4987656  )
         4           Fe2 tau(   4) = (   0.5000005   0.2886748   0.2650306  )
         5           Fe2 tau(   5) = (   0.0000000   0.0000000   0.6836385  )
         6           Fe2 tau(   6) = (  -0.0000005   0.5773506   1.1071829  )
         7           Bi  tau(   7) = (   0.5000005   0.2886748   2.0704508  )
         8           Bi  tau(   8) = (  -0.0000005   0.5773506   1.6683657  )
         9           Bi  tau(   9) = (  -0.0000005   0.5773506   0.4345959  )
        10           Bi  tau(  10) = (   0.0000000   0.0000000   0.0112133  )
        11           Bi  tau(  11) = (   0.0000000   0.0000000   1.2449306  )
        12           Bi  tau(  12) = (   0.5000005   0.2886748   0.8366940  )
        13           O   tau(  13) = (  -0.3015234   0.6617768   2.1713309  )
        14           O   tau(  14) = (   0.0776467   0.2740092   2.1713309  )
        15           O   tau(  15) = (   0.2238783   0.7962639   2.1713309  )
        16           O   tau(  16) = (   0.4195843   0.5622547   1.7587968  )
        17           O   tau(  17) = (   0.3032805   0.0822442   1.7587968  )
        18           O   tau(  18) = (   0.7771337   0.2215274   1.7587968  )
        19           O   tau(  19) = (   0.6967279   0.0822438   0.5250654  )
        20           O   tau(  20) = (   0.5804103   0.5622631   0.5250654  )
        21           O   tau(  21) = (   0.2228602   0.2215194   0.5250654  )
        22           O   tau(  22) = (  -0.0757596   0.8510068   0.1130324  )
        23           O   tau(  23) = (  -0.1991137   0.3749123   0.1130324  )
        24           O   tau(  24) = (   0.2748733   0.5061317   0.1130324  )
        25           O   tau(  25) = (   0.1991050   0.3749017   1.3467955  )
        26           O   tau(  26) = (   0.0757731   0.8510045   1.3467955  )
        27           O   tau(  27) = (  -0.2748781   0.5061446   1.3467955  )
        28           O   tau(  28) = (  -0.0776631   0.2740052   0.9376559  )
        29           O   tau(  29) = (   0.3015366   0.6617637   0.9376559  )
        30           O   tau(  30) = (  -0.2238720   0.7962811   0.9376559  )

   Crystallographic axes

     site n.     atom                  positions (cryst. coord.)
         1           Fe1 tau(   1) = (  0.0000000  0.0000000  0.7770559  )
         2           Fe1 tau(   2) = (  0.3333330  0.6666670  0.9486980  )
         3           Fe1 tau(   3) = (  0.6666670  0.3333330  0.6074234  )
         4           Fe2 tau(   4) = (  0.6666670  0.3333330  0.1074122  )
         5           Fe2 tau(   5) = (  0.0000000  0.0000000  0.2770667  )
         6           Fe2 tau(   6) = (  0.3333330  0.6666670  0.4487218  )
         7           Bi  tau(   7) = (  0.6666670  0.3333330  0.8391174  )
         8           Bi  tau(   8) = (  0.3333330  0.6666670  0.6761593  )
         9           Bi  tau(   9) = (  0.3333330  0.6666670  0.1761341  )
        10           Bi  tau(  10) = (  0.0000000  0.0000000  0.0045446  )
        11           Bi  tau(  11) = (  0.0000000  0.0000000  0.5045485  )
        12           Bi  tau(  12) = (  0.6666670  0.3333330  0.3390974  )
        13           O   tau(  13) = (  0.0805536  0.7641541  0.8800023  )
        14           O   tau(  14) = (  0.2358459  0.3163985  0.8800023  )
        15           O   tau(  15) = (  0.6836015  0.9194464  0.8800023  )
        16           O   tau(  16) = (  0.7442022  0.6492358  0.7128095  )
        17           O   tau(  17) = (  0.3507642  0.0949674  0.7128095  )
        18           O   tau(  18) = (  0.9050326  0.2557978  0.7128095  )
        19           O   tau(  19) = (  0.7442114  0.0949669  0.2127998  )
        20           O   tau(  20) = (  0.9050331  0.6492455  0.2127998  )
        21           O   tau(  21) = (  0.3507545  0.2557886  0.2127998  )
        22           O   tau(  22) = (  0.4155694  0.9826580  0.0458101  )
        23           O   tau(  23) = (  0.0173420  0.4329115  0.0458101  )
        24           O   tau(  24) = (  0.5670885  0.5844306  0.0458101  )
        25           O   tau(  25) = (  0.4155546  0.4328992  0.5458326  )
        26           O   tau(  26) = (  0.5671008  0.9826554  0.5458326  )
        27           O   tau(  27) = (  0.0173446  0.5844454  0.5458326  )
        28           O   tau(  28) = (  0.0805338  0.3163939  0.3800155  )
        29           O   tau(  29) = (  0.6836061  0.7641389  0.3800155  )
        30           O   tau(  30) = (  0.2358611  0.9194662  0.3800155  )

     number of k points=     2  Methfessel-Paxton smearing, width (Ry)=  0.0100
                       cart. coord. in units 2pi/alat
        k(    1) = (   0.0000000   0.0000000   0.0000000), wk =   0.2500000
        k(    2) = (   0.0000000  -0.5773503   0.0000000), wk =   0.7500000

                       cryst. coord.
        k(    1) = (   0.0000000   0.0000000   0.0000000), wk =   0.2500000
        k(    2) = (   0.0000000  -0.5000000   0.0000000), wk =   0.7500000

     Dense  grid:    54257 G-vectors     FFT dimensions: (  40,  40,  90)

     Dynamical RAM for                 wfc:       5.17 MB

     Dynamical RAM for     wfc (w. buffer):      25.83 MB

     Dynamical RAM for             U proj.:       0.77 MB

     Dynamical RAM for  U proj. (w. buff.):       3.87 MB

     Dynamical RAM for           str. fact:       0.83 MB

     Dynamical RAM for           local pot:       0.00 MB

     Dynamical RAM for          nlocal pot:      11.62 MB

     Dynamical RAM for                qrad:       3.52 MB

     Dynamical RAM for          rho,v,vnew:       2.93 MB

     Dynamical RAM for               rhoin:       0.98 MB

     Dynamical RAM for            rho*nmix:       6.62 MB

     Dynamical RAM for           G-vectors:       0.88 MB

     Dynamical RAM for          h,s,v(r/c):       0.46 MB

     Dynamical RAM for          <psi|beta>:       1.37 MB

     Dynamical RAM for      wfcinit/wfcrot:      11.49 MB

     Dynamical RAM for           addusdens:      42.42 MB

     Estimated static dynamical RAM per process >      59.80 MB

     Estimated max dynamical RAM per process >     102.23 MB

     Estimated total dynamical RAM >     408.91 MB

     Check: negative core charge=   -0.000259
     Generating pointlists ...
     new r_m :   0.1435 (alat units)  1.5003 (a.u.) for type    1
     new r_m :   0.1728 (alat units)  1.8065 (a.u.) for type    2
     new r_m :   0.1435 (alat units)  1.5003 (a.u.) for type    3
     new r_m :   0.1435 (alat units)  1.5003 (a.u.) for type    4

     The initial density is read from file :
     /home/aldair1809/Documentos/QE/4BFO/hubbard_pbe_mp/lr_0.2/bifeo3-Uhubbard.save/charge-density


     negative rho (up, down):  1.216E-01 1.216E-01
 --- in v_hubbard ---
Hubbard energy    0.6437
 -------
     Number of +U iterations with fixed ns =  0
     Starting occupations:
 --- enter write_ns ---
 LDA+U parameters:
U( 3)     =  0.50000000
alpha( 3) =  0.20000000
U( 4)     =  0.50000000
alpha( 4) =  0.20000000
atom    1   Tr[ns(na)] (up, down, total) =   1.12068  4.90053  6.02122
   spin  1
    eigenvalues: 
  0.164  0.164  0.169  0.312  0.312
    eigenvectors:
  0.000  0.000  1.000  0.000  0.000
  0.076  0.317  0.000  0.025  0.582
  0.317  0.076  0.000  0.582  0.025
  0.168  0.439  0.000  0.205  0.189
  0.439  0.168  0.000  0.189  0.205
    occupations:
  0.169 -0.000 -0.000 -0.000 -0.000
 -0.000  0.254 -0.000  0.038  0.061
 -0.000 -0.000  0.254  0.061 -0.038
 -0.000  0.038  0.061  0.222  0.000
 -0.000  0.061 -0.038  0.000  0.222
   spin  2
    eigenvalues: 
  0.978  0.978  0.981  0.982  0.982
    eigenvectors:
  0.000  0.000  1.000  0.000  0.000
  0.027  0.444  0.000  0.070  0.459
  0.444  0.027  0.000  0.459  0.070
  0.211  0.319  0.000  0.128  0.342
  0.319  0.211  0.000  0.342  0.128
    occupations:
  0.981 -0.000 -0.000 -0.000 -0.000
 -0.000  0.980 -0.000 -0.001 -0.002
 -0.000 -0.000  0.980 -0.002  0.001
 -0.000 -0.001 -0.002  0.980  0.000
 -0.000 -0.002  0.001  0.000  0.980
atomic mag. moment =  -3.77985
atom    2   Tr[ns(na)] (up, down, total) =   1.20281  4.86573  6.06854
   spin  1
    eigenvalues: 
  0.165  0.179  0.179  0.340  0.340
    eigenvectors:
  1.000  0.000  0.000  0.000  0.000
  0.000  0.222  0.059  0.275  0.445
  0.000  0.059  0.222  0.445  0.275
  0.000  0.099  0.621  0.001  0.280
  0.000  0.621  0.099  0.280  0.001
    occupations:
  0.165 -0.000 -0.000 -0.000 -0.000
 -0.000  0.295 -0.000 -0.055  0.048
 -0.000 -0.000  0.295  0.048  0.055
 -0.000 -0.055  0.048  0.224  0.000
 -0.000  0.048  0.055  0.000  0.224
   spin  2
    eigenvalues: 
  0.963  0.963  0.979  0.980  0.980
    eigenvectors:
  0.000  0.000  1.000  0.000  0.000
  0.417  0.256  0.000  0.275  0.052
  0.256  0.417  0.000  0.052  0.275
  0.000  0.327  0.000  0.050  0.623
  0.327  0.000  0.000  0.623  0.050
    occupations:
  0.979 -0.000 -0.000 -0.000 -0.000
 -0.000  0.969 -0.000  0.005 -0.006
 -0.000 -0.000  0.969 -0.006 -0.005
 -0.000  0.005 -0.006  0.975  0.000
 -0.000 -0.006 -0.005  0.000  0.975
atomic mag. moment =  -3.66291
atom    3   Tr[ns(na)] (up, down, total) =   1.21607  4.87089  6.08695
   spin  1
    eigenvalues: 
  0.183  0.183  0.191  0.329  0.329
    eigenvectors:
  0.000  0.000  1.000  0.000  0.000
  0.377  0.191  0.000  0.337  0.096
  0.191  0.377  0.000  0.096  0.337
  0.027  0.405  0.000  0.079  0.489
  0.405  0.027  0.000  0.489  0.079
    occupations:
  0.191 -0.000 -0.000 -0.000 -0.000
 -0.000  0.246 -0.000 -0.056  0.047
 -0.000 -0.000  0.246  0.047  0.056
 -0.000 -0.056  0.047  0.266  0.000
 -0.000  0.047  0.056  0.000  0.266
   spin  2
    eigenvalues: 
  0.967  0.967  0.979  0.980  0.980
    eigenvectors:
  0.000  0.000  1.000  0.000  0.000
  0.432  0.112  0.000  0.327  0.130
  0.112  0.432  0.000  0.130  0.327
  0.040  0.416  0.000  0.024  0.520
  0.416  0.040  0.000  0.520  0.024
    occupations:
  0.979 -0.000 -0.000 -0.000 -0.000
 -0.000  0.972 -0.000  0.005 -0.005
 -0.000 -0.000  0.972 -0.005 -0.005
 -0.000  0.005 -0.005  0.974  0.000
 -0.000 -0.005 -0.005  0.000  0.974
atomic mag. moment =  -3.65482
atom    4   Tr[ns(na)] (up, down, total) =   4.87093  1.21631  6.08724
   spin  1
    eigenvalues: 
  0.967  0.967  0.979  0.980  0.980
    eigenvectors:
  0.000  0.000  1.000  0.000  0.000
  0.007  0.537  0.000  0.039  0.417
  0.537  0.007  0.000  0.417  0.039
  0.184  0.273  0.000  0.126  0.418
  0.273  0.184  0.000  0.418  0.126
    occupations:
  0.979 -0.000 -0.000 -0.000 -0.000
 -0.000  0.972 -0.000 -0.005 -0.005
 -0.000 -0.000  0.972 -0.005  0.005
 -0.000 -0.005 -0.005  0.974  0.000
 -0.000 -0.005  0.005  0.000  0.974
   spin  2
    eigenvalues: 
  0.183  0.183  0.192  0.329  0.329
    eigenvectors:
  0.000  0.000  1.000  0.000  0.000
  0.000  0.568  0.000  0.004  0.428
  0.568  0.000  0.000  0.428  0.004
  0.167  0.265  0.000  0.186  0.382
  0.265  0.167  0.000  0.382  0.186
    occupations:
  0.192 -0.000 -0.000 -0.000 -0.000
 -0.000  0.246 -0.000  0.055  0.047
 -0.000 -0.000  0.246  0.047 -0.055
 -0.000  0.055  0.047  0.266  0.000
 -0.000  0.047 -0.055  0.000  0.266
atomic mag. moment =   3.65462
atom    5   Tr[ns(na)] (up, down, total) =   4.90061  1.12299  6.02360
   spin  1
    eigenvalues: 
  0.978  0.978  0.981  0.982  0.982
    eigenvectors:
  0.000  0.000  1.000  0.000  0.000
  0.446  0.024  0.000  0.402  0.128
  0.024  0.446  0.000  0.128  0.402
  0.088  0.442  0.000  0.008  0.462
  0.442  0.088  0.000  0.462  0.008
    occupations:
  0.981 -0.000 -0.000 -0.000 -0.000
 -0.000  0.980 -0.000  0.001 -0.002
 -0.000 -0.000  0.980 -0.002 -0.001
 -0.000  0.001 -0.002  0.980  0.000
 -0.000 -0.002 -0.001  0.000  0.980
   spin  2
    eigenvalues: 
  0.165  0.165  0.169  0.312  0.312
    eigenvectors:
  0.000  0.000  1.000  0.000  0.000
  0.370  0.022  0.000  0.580  0.028
  0.022  0.370  0.000  0.028  0.580
  0.059  0.548  0.000  0.045  0.348
  0.548  0.059  0.000  0.348  0.045
    occupations:
  0.169 -0.000 -0.000 -0.000 -0.000
 -0.000  0.254 -0.000 -0.038  0.061
 -0.000 -0.000  0.254  0.061  0.038
 -0.000 -0.038  0.061  0.223  0.000
 -0.000  0.061  0.038  0.000  0.223
atomic mag. moment =   3.77762
atom    6   Tr[ns(na)] (up, down, total) =   4.86578  1.20349  6.06928
   spin  1
    eigenvalues: 
  0.963  0.963  0.979  0.980  0.980
    eigenvectors:
  0.000  0.000  1.000  0.000  0.000
  0.005  0.668  0.000  0.059  0.268
  0.668  0.005  0.000  0.268  0.059
  0.169  0.158  0.000  0.126  0.546
  0.158  0.169  0.000  0.546  0.126
    occupations:
  0.979 -0.000 -0.000 -0.000 -0.000
 -0.000  0.969 -0.000 -0.005 -0.006
 -0.000 -0.000  0.969 -0.006  0.005
 -0.000 -0.005 -0.006  0.975  0.000
 -0.000 -0.006  0.005  0.000  0.975
   spin  2
    eigenvalues: 
  0.165  0.179  0.179  0.340  0.340
    eigenvectors:
  1.000  0.000  0.000  0.000  0.000
  0.000  0.011  0.269  0.001  0.720
  0.000  0.269  0.011  0.720  0.001
  0.000  0.176  0.544  0.130  0.149
  0.000  0.544  0.176  0.149  0.130
    occupations:
  0.165 -0.000 -0.000 -0.000 -0.000
 -0.000  0.295 -0.000  0.055  0.047
 -0.000 -0.000  0.295  0.047 -0.055
 -0.000  0.055  0.047  0.224  0.000
 -0.000  0.047 -0.055  0.000  0.224
atomic mag. moment =   3.66229
N of occupied +U levels =   36.356828
 --- exit write_ns ---
 Atomic wfc used for LDA+U Projector are NOT orthogonalized
     Starting wfcs are  204 randomized atomic wfcs

     total cpu time spent up to now is       35.5 secs

     Self-consistent Calculation

     iteration #  1     ecut=    30.00 Ry     beta= 0.40
     CG style diagonalization
     c_bands:  1 eigenvalues not converged
     c_bands:  4 eigenvalues not converged
     c_bands:  2 eigenvalues not converged
     c_bands:  1 eigenvalues not converged
     ethr =  1.00E-09,  avg # of iterations = 37.8
 --- enter write_ns ---
 LDA+U parameters:
U( 3)     =  0.50000000
alpha( 3) =  0.20000000
U( 4)     =  0.50000000
alpha( 4) =  0.20000000
atom    1   Tr[ns(na)] (up, down, total) =   1.08912  4.90165  5.99077
   spin  1
    eigenvalues: 
  0.156  0.156  0.173  0.302  0.302
    eigenvectors:
  0.000  0.000  1.000  0.000  0.000
  0.071  0.319  0.000  0.023  0.587
  0.319  0.071  0.000  0.587  0.023
  0.171  0.439  0.000  0.202  0.188
  0.439  0.171  0.000  0.188  0.202
    occupations:
  0.173 -0.000 -0.000 -0.000 -0.000
 -0.000  0.245 -0.000  0.038  0.060
 -0.000 -0.000  0.245  0.060 -0.038
 -0.000  0.038  0.060  0.213  0.000
 -0.000  0.060 -0.038  0.000  0.213
   spin  2
    eigenvalues: 
  0.979  0.979  0.981  0.982  0.982
    eigenvectors:
  0.000  0.000  1.000  0.000  0.000
  0.039  0.413  0.000  0.093  0.455
  0.413  0.039  0.000  0.455  0.093
  0.219  0.328  0.000  0.127  0.325
  0.328  0.219  0.000  0.325  0.127
    occupations:
  0.981 -0.000 -0.000 -0.000 -0.000
 -0.000  0.980 -0.000 -0.001 -0.001
 -0.000 -0.000  0.980 -0.001  0.001
 -0.000 -0.001 -0.001  0.980  0.000
 -0.000 -0.001  0.001  0.000  0.980
atomic mag. moment =  -3.81253
atom    2   Tr[ns(na)] (up, down, total) =   1.14335  4.86888  6.01224
   spin  1
    eigenvalues: 
  0.152  0.168  0.168  0.328  0.328
    eigenvectors:
  1.000  0.000  0.000  0.000  0.000
  0.000  0.225  0.057  0.279  0.439
  0.000  0.057  0.225  0.439  0.279
  0.000  0.100  0.618  0.001  0.281
  0.000  0.618  0.100  0.281  0.001
    occupations:
  0.152 -0.000 -0.000 -0.000 -0.000
 -0.000  0.283 -0.000 -0.054  0.047
 -0.000 -0.000  0.283  0.047  0.054
 -0.000 -0.054  0.047  0.213  0.000
 -0.000  0.047  0.054  0.000  0.213
   spin  2
    eigenvalues: 
  0.964  0.964  0.979  0.980  0.980
    eigenvectors:
  0.000  0.000  1.000  0.000  0.000
  0.413  0.263  0.000  0.274  0.050
  0.263  0.413  0.000  0.050  0.274
  0.000  0.325  0.000  0.051  0.625
  0.325  0.000  0.000  0.625  0.051
    occupations:
  0.979 -0.000 -0.000 -0.000 -0.000
 -0.000  0.970 -0.000  0.005 -0.006
 -0.000 -0.000  0.970 -0.006 -0.005
 -0.000  0.005 -0.006  0.975  0.000
 -0.000 -0.006 -0.005  0.000  0.975
atomic mag. moment =  -3.72553
atom    3   Tr[ns(na)] (up, down, total) =   1.15499  4.87426  6.02925
   spin  1
    eigenvalues: 
  0.170  0.170  0.178  0.318  0.318
    eigenvectors:
  0.000  0.000  1.000  0.000  0.000
  0.377  0.184  0.000  0.345  0.094
  0.184  0.377  0.000  0.094  0.345
  0.027  0.412  0.000  0.077  0.484
  0.412  0.027  0.000  0.484  0.077
    occupations:
  0.178 -0.000 -0.000 -0.000 -0.000
 -0.000  0.235 -0.000 -0.056  0.048
 -0.000 -0.000  0.235  0.048  0.056
 -0.000 -0.056  0.048  0.253  0.000
 -0.000  0.048  0.056  0.000  0.253
   spin  2
    eigenvalues: 
  0.968  0.968  0.979  0.980  0.980
    eigenvectors:
  0.000  0.000  1.000  0.000  0.000
  0.426  0.101  0.000  0.333  0.140
  0.101  0.426  0.000  0.140  0.333
  0.047  0.426  0.000  0.021  0.506
  0.426  0.047  0.000  0.506  0.021
    occupations:
  0.979 -0.000 -0.000 -0.000 -0.000
 -0.000  0.974 -0.000  0.004 -0.004
 -0.000 -0.000  0.974 -0.004 -0.004
 -0.000  0.004 -0.004  0.974  0.000
 -0.000 -0.004 -0.004  0.000  0.974
atomic mag. moment =  -3.71926
atom    4   Tr[ns(na)] (up, down, total) =   4.87301  1.14505  6.01805
   spin  1
    eigenvalues: 
  0.968  0.968  0.979  0.980  0.980
    eigenvectors:
  0.000  0.000  1.000  0.000  0.000
  0.007  0.523  0.000  0.037  0.433
  0.523  0.007  0.000  0.433  0.037
  0.186  0.285  0.000  0.126  0.403
  0.285  0.186  0.000  0.403  0.126
    occupations:
  0.979 -0.000 -0.000 -0.000 -0.000
 -0.000  0.973 -0.000 -0.004 -0.004
 -0.000 -0.000  0.973 -0.004  0.004
 -0.000 -0.004 -0.004  0.974  0.000
 -0.000 -0.004  0.004  0.000  0.974
   spin  2
    eigenvalues: 
  0.168  0.168  0.175  0.317  0.317
    eigenvectors:
  0.000  0.000  1.000  0.000  0.000
  0.001  0.549  0.000  0.004  0.445
  0.549  0.001  0.000  0.445  0.004
  0.170  0.279  0.000  0.185  0.366
  0.279  0.170  0.000  0.366  0.185
    occupations:
  0.175 -0.000 -0.000 -0.000 -0.000
 -0.000  0.235 -0.000  0.056  0.048
 -0.000 -0.000  0.235  0.048 -0.056
 -0.000  0.056  0.048  0.250  0.000
 -0.000  0.048 -0.056  0.000  0.250
atomic mag. moment =   3.72796
atom    5   Tr[ns(na)] (up, down, total) =   4.90052  1.03373  5.93425
   spin  1
    eigenvalues: 
  0.978  0.978  0.981  0.982  0.982
    eigenvectors:
  0.000  0.000  1.000  0.000  0.000
  0.447  0.012  0.000  0.422  0.120
  0.012  0.447  0.000  0.120  0.422
  0.101  0.441  0.000  0.006  0.452
  0.441  0.101  0.000  0.452  0.006
    occupations:
  0.981 -0.000 -0.000 -0.000 -0.000
 -0.000  0.980 -0.000  0.001 -0.001
 -0.000 -0.000  0.980 -0.001 -0.001
 -0.000  0.001 -0.001  0.980  0.000
 -0.000 -0.001 -0.001  0.000  0.980
   spin  2
    eigenvalues: 
  0.142  0.147  0.147  0.299  0.299
    eigenvectors:
  1.000  0.000  0.000  0.000  0.000
  0.000  0.367  0.032  0.556  0.045
  0.000  0.032  0.367  0.045  0.556
  0.000  0.054  0.547  0.039  0.360
  0.000  0.547  0.054  0.360  0.039
    occupations:
  0.142 -0.000 -0.000 -0.000 -0.000
 -0.000  0.238 -0.000 -0.041  0.061
 -0.000 -0.000  0.238  0.061  0.041
 -0.000 -0.041  0.061  0.208  0.000
 -0.000  0.061  0.041  0.000  0.208
atomic mag. moment =   3.86678
atom    6   Tr[ns(na)] (up, down, total) =   4.86728  1.11878  5.98606
   spin  1
    eigenvalues: 
  0.964  0.964  0.979  0.980  0.980
    eigenvectors:
  0.000  0.000  1.000  0.000  0.000
  0.005  0.670  0.000  0.058  0.267
  0.670  0.005  0.000  0.267  0.058
  0.168  0.157  0.000  0.127  0.548
  0.157  0.168  0.000  0.548  0.127
    occupations:
  0.979 -0.000 -0.000 -0.000 -0.000
 -0.000  0.969 -0.000 -0.005 -0.006
 -0.000 -0.000  0.969 -0.006  0.005
 -0.000 -0.005 -0.006  0.975  0.000
 -0.000 -0.006  0.005  0.000  0.975
   spin  2
    eigenvalues: 
  0.151  0.159  0.159  0.325  0.325
    eigenvectors:
  1.000  0.000  0.000  0.000  0.000
  0.000  0.016  0.282  0.000  0.702
  0.000  0.282  0.016  0.702  0.000
  0.000  0.172  0.530  0.141  0.157
  0.000  0.530  0.172  0.157  0.141
    occupations:
  0.151 -0.000 -0.000 -0.000 -0.000
 -0.000  0.276 -0.000  0.056  0.052
 -0.000 -0.000  0.276  0.052 -0.056
 -0.000  0.056  0.052  0.208  0.000
 -0.000  0.052 -0.056  0.000  0.208
atomic mag. moment =   3.74851
N of occupied +U levels =   35.970619
 --- exit write_ns ---

     negative rho (up, down):  1.216E-01 1.216E-01
 --- in v_hubbard ---
Hubbard energy    0.6398
 -------

     total cpu time spent up to now is     1117.5 secs

     total energy              =   -3194.14810405 Ry
     estimated scf accuracy    <       0.01492517 Ry

     total magnetization       =     0.08 Bohr mag/cell
     absolute magnetization    =    27.74 Bohr mag/cell

     iteration #  2     ecut=    30.00 Ry     beta= 0.40
     CG style diagonalization
     ethr =  5.08E-06,  avg # of iterations =  3.5
 --- enter write_ns ---
 LDA+U parameters:
U( 3)     =  0.50000000
alpha( 3) =  0.20000000
U( 4)     =  0.50000000
alpha( 4) =  0.20000000
atom    1   Tr[ns(na)] (up, down, total) =   1.08119  4.86819  5.94938
   spin  1
    eigenvalues: 
  0.152  0.159  0.159  0.305  0.305
    eigenvectors:
  1.000  0.000  0.000  0.000  0.000
  0.000  0.073  0.325  0.023  0.580
  0.000  0.325  0.073  0.580  0.023
  0.000  0.167  0.436  0.203  0.194
  0.000  0.436  0.167  0.194  0.203
    occupations:
  0.152 -0.000 -0.000 -0.000 -0.000
 -0.000  0.247 -0.000  0.039  0.060
 -0.000 -0.000  0.247  0.060 -0.039
 -0.000  0.039  0.060  0.217  0.000
 -0.000  0.060 -0.039  0.000  0.217
   spin  2
    eigenvalues: 
  0.962  0.962  0.981  0.982  0.982
    eigenvectors:
  0.000  0.000  1.000  0.000  0.000
  0.001  0.538  0.000  0.016  0.445
  0.538  0.001  0.000  0.445  0.016
  0.169  0.292  0.000  0.125  0.414
  0.292  0.169  0.000  0.414  0.125
    occupations:
  0.981 -0.000 -0.000 -0.000 -0.000
 -0.000  0.971 -0.000 -0.008 -0.006
 -0.000 -0.000  0.971 -0.006  0.008
 -0.000 -0.008 -0.006  0.973  0.000
 -0.000 -0.006  0.008  0.000  0.973
atomic mag. moment =  -3.78699
atom    2   Tr[ns(na)] (up, down, total) =   1.19237  4.84768  6.04005
   spin  1
    eigenvalues: 
  0.164  0.176  0.176  0.338  0.338
    eigenvectors:
  1.000  0.000  0.000  0.000  0.000
  0.000  0.246  0.050  0.317  0.387
  0.000  0.050  0.246  0.387  0.317
  0.000  0.090  0.614  0.001  0.295
  0.000  0.614  0.090  0.295  0.001
    occupations:
  0.164 -0.000 -0.000 -0.000 -0.000
 -0.000  0.290 -0.000 -0.053  0.052
 -0.000 -0.000  0.290  0.052  0.053
 -0.000 -0.053  0.052  0.224  0.000
 -0.000  0.052  0.053  0.000  0.224
   spin  2
    eigenvalues: 
  0.953  0.953  0.980  0.981  0.981
    eigenvectors:
  0.000  0.000  1.000  0.000  0.000
  0.424  0.216  0.000  0.282  0.077
  0.216  0.424  0.000  0.077  0.282
  0.006  0.354  0.000  0.043  0.597
  0.354  0.006  0.000  0.597  0.043
    occupations:
  0.980 -0.000 -0.000 -0.000 -0.000
 -0.000  0.963 -0.000  0.009 -0.010
 -0.000 -0.000  0.963 -0.010 -0.009
 -0.000  0.009 -0.010  0.971  0.000
 -0.000 -0.010 -0.009  0.000  0.971
atomic mag. moment =  -3.65531
atom    3   Tr[ns(na)] (up, down, total) =   1.20538  4.85430  6.05968
   spin  1
    eigenvalues: 
  0.179  0.179  0.191  0.328  0.328
    eigenvectors:
  0.000  0.000  1.000  0.000  0.000
  0.381  0.149  0.000  0.377  0.093
  0.149  0.381  0.000  0.093  0.377
  0.033  0.438  0.000  0.067  0.463
  0.438  0.033  0.000  0.463  0.067
    occupations:
  0.191 -0.000 -0.000 -0.000 -0.000
 -0.000  0.249 -0.000 -0.055  0.050
 -0.000 -0.000  0.249  0.050  0.055
 -0.000 -0.055  0.050  0.258  0.000
 -0.000  0.050  0.055  0.000  0.258
   spin  2
    eigenvalues: 
  0.958  0.958  0.979  0.980  0.980
    eigenvectors:
  0.000  0.000  1.000  0.000  0.000
  0.417  0.173  0.000  0.296  0.115
  0.173  0.417  0.000  0.115  0.296
  0.021  0.390  0.000  0.034  0.556
  0.390  0.021  0.000  0.556  0.034
    occupations:
  0.979 -0.000 -0.000 -0.000 -0.000
 -0.000  0.967 -0.000  0.008 -0.007
 -0.000 -0.000  0.967 -0.007 -0.008
 -0.000  0.008 -0.007  0.971  0.000
 -0.000 -0.007 -0.008  0.000  0.971
atomic mag. moment =  -3.64891
atom    4   Tr[ns(na)] (up, down, total) =   4.88217  1.28617  6.16834
   spin  1
    eigenvalues: 
  0.971  0.971  0.980  0.981  0.981
    eigenvectors:
  0.000  0.000  1.000  0.000  0.000
  0.006  0.520  0.000  0.034  0.440
  0.520  0.006  0.000  0.440  0.034
  0.184  0.290  0.000  0.126  0.400
  0.290  0.184  0.000  0.400  0.126
    occupations:
  0.980 -0.000 -0.000 -0.000 -0.000
 -0.000  0.975 -0.000 -0.004 -0.003
 -0.000 -0.000  0.975 -0.003  0.004
 -0.000 -0.004 -0.003  0.976  0.000
 -0.000 -0.003  0.004  0.000  0.976
   spin  2
    eigenvalues: 
  0.199  0.199  0.209  0.340  0.340
    eigenvectors:
  0.000  0.000  1.000  0.000  0.000
  0.000  0.603  0.000  0.004  0.393
  0.603  0.000  0.000  0.393  0.004
  0.165  0.232  0.000  0.191  0.413
  0.232  0.165  0.000  0.413  0.191
    occupations:
  0.209 -0.000 -0.000 -0.000 -0.000
 -0.000  0.255 -0.000  0.053  0.044
 -0.000 -0.000  0.255  0.044 -0.053
 -0.000  0.053  0.044  0.284  0.000
 -0.000  0.044 -0.053  0.000  0.284
atomic mag. moment =   3.59600
atom    5   Tr[ns(na)] (up, down, total) =   4.90836  1.31337  6.22173
   spin  1
    eigenvalues: 
  0.980  0.980  0.982  0.983  0.983
    eigenvectors:
  0.000  0.000  1.000  0.000  0.000
  0.457  0.004  0.000  0.438  0.101
  0.004  0.457  0.000  0.101  0.438
  0.110  0.429  0.000  0.006  0.455
  0.429  0.110  0.000  0.455  0.006
    occupations:
  0.982 -0.000 -0.000 -0.000 -0.000
 -0.000  0.982 -0.000  0.001 -0.001
 -0.000 -0.000  0.982 -0.001 -0.001
 -0.000  0.001 -0.001  0.981  0.000
 -0.000 -0.001 -0.001  0.000  0.981
   spin  2
    eigenvalues: 
  0.198  0.198  0.255  0.331  0.331
    eigenvectors:
  0.000  0.000  1.000  0.000  0.000
  0.356  0.004  0.000  0.639  0.000
  0.004  0.356  0.000  0.000  0.639
  0.076  0.564  0.000  0.078  0.282
  0.564  0.076  0.000  0.282  0.078
    occupations:
  0.255 -0.000 -0.000 -0.000 -0.000
 -0.000  0.283 -0.000 -0.028  0.058
 -0.000 -0.000  0.283  0.058  0.028
 -0.000 -0.028  0.058  0.246  0.000
 -0.000  0.058  0.028  0.000  0.246
atomic mag. moment =   3.59498
atom    6   Tr[ns(na)] (up, down, total) =   4.88082  1.33523  6.21605
   spin  1
    eigenvalues: 
  0.969  0.969  0.981  0.982  0.982
    eigenvectors:
  0.000  0.000  1.000  0.000  0.000
  0.004  0.681  0.000  0.056  0.259
  0.681  0.004  0.000  0.259  0.056
  0.165  0.150  0.000  0.128  0.557
  0.150  0.165  0.000  0.557  0.128
    occupations:
  0.981 -0.000 -0.000 -0.000 -0.000
 -0.000  0.973 -0.000 -0.004 -0.005
 -0.000 -0.000  0.973 -0.005  0.004
 -0.000 -0.004 -0.005  0.977  0.000
 -0.000 -0.005  0.004  0.000  0.977
   spin  2
    eigenvalues: 
  0.187  0.214  0.214  0.360  0.360
    eigenvectors:
  1.000  0.000  0.000  0.000  0.000
  0.000  0.001  0.229  0.011  0.759
  0.000  0.229  0.001  0.759  0.011
  0.000  0.184  0.586  0.094  0.136
  0.000  0.586  0.184  0.136  0.094
    occupations:
  0.187 -0.000 -0.000 -0.000 -0.000
 -0.000  0.327 -0.000  0.052  0.033
 -0.000 -0.000  0.327  0.033 -0.052
 -0.000  0.052  0.033  0.247  0.000
 -0.000  0.033 -0.052  0.000  0.247
atomic mag. moment =   3.54559
N of occupied +U levels =   36.655230
 --- exit write_ns ---

     negative rho (up, down):  1.216E-01 1.216E-01
 --- in v_hubbard ---
Hubbard energy    0.6409
 -------

     total cpu time spent up to now is     1221.7 secs

     total energy              =   -3194.13823837 Ry
     estimated scf accuracy    <       0.15722766 Ry

     total magnetization       =     0.00 Bohr mag/cell
     absolute magnetization    =    27.13 Bohr mag/cell

     iteration #  3     ecut=    30.00 Ry     beta= 0.40
     CG style diagonalization
     ethr =  5.08E-06,  avg # of iterations =  3.4
 --- enter write_ns ---
 LDA+U parameters:
U( 3)     =  0.50000000
alpha( 3) =  0.20000000
U( 4)     =  0.50000000
alpha( 4) =  0.20000000
atom    1   Tr[ns(na)] (up, down, total) =   1.11792  4.90498  6.02289
   spin  1
    eigenvalues: 
  0.162  0.164  0.164  0.314  0.314
    eigenvectors:
  1.000  0.000  0.000  0.000  0.000
  0.000  0.079  0.314  0.026  0.581
  0.000  0.314  0.079  0.581  0.026
  0.000  0.167  0.440  0.205  0.187
  0.000  0.440  0.167  0.187  0.205
    occupations:
  0.162 -0.000 -0.000 -0.000 -0.000
 -0.000  0.255 -0.000  0.039  0.062
 -0.000 -0.000  0.255  0.062 -0.039
 -0.000  0.039  0.062  0.223  0.000
 -0.000  0.062 -0.039  0.000  0.223
   spin  2
    eigenvalues: 
  0.980  0.980  0.981  0.982  0.982
    eigenvectors:
  0.000  0.000  1.000  0.000  0.000
  0.044  0.409  0.000  0.106  0.441
  0.409  0.044  0.000  0.441  0.106
  0.222  0.325  0.000  0.125  0.328
  0.325  0.222  0.000  0.328  0.125
    occupations:
  0.981 -0.000 -0.000 -0.000 -0.000
 -0.000  0.981 -0.000 -0.001 -0.001
 -0.000 -0.000  0.981 -0.001  0.001
 -0.000 -0.001 -0.001  0.981  0.000
 -0.000 -0.001  0.001  0.000  0.981
atomic mag. moment =  -3.78706
atom    2   Tr[ns(na)] (up, down, total) =   1.23348  4.87683  6.11030
   spin  1
    eigenvalues: 
  0.172  0.184  0.184  0.347  0.347
    eigenvectors:
  1.000  0.000  0.000  0.000  0.000
  0.000  0.204  0.066  0.252  0.477
  0.000  0.066  0.204  0.477  0.252
  0.000  0.102  0.627  0.000  0.270
  0.000  0.627  0.102  0.270  0.000
    occupations:
  0.172 -0.000 -0.000 -0.000 -0.000
 -0.000  0.303 -0.000 -0.057  0.045
 -0.000 -0.000  0.303  0.045  0.057
 -0.000 -0.057  0.045  0.228  0.000
 -0.000  0.045  0.057  0.000  0.228
   spin  2
    eigenvalues: 
  0.967  0.967  0.980  0.981  0.981
    eigenvectors:
  0.000  0.000  1.000  0.000  0.000
  0.399  0.283  0.000  0.269  0.050
  0.283  0.399  0.000  0.050  0.269
  0.000  0.318  0.000  0.052  0.629
  0.318  0.000  0.000  0.629  0.052
    occupations:
  0.980 -0.000 -0.000 -0.000 -0.000
 -0.000  0.972 -0.000  0.004 -0.005
 -0.000 -0.000  0.972 -0.005 -0.004
 -0.000  0.004 -0.005  0.977  0.000
 -0.000 -0.005 -0.004  0.000  0.977
atomic mag. moment =  -3.64335
atom    3   Tr[ns(na)] (up, down, total) =   1.26262  4.88132  6.14395
   spin  1
    eigenvalues: 
  0.193  0.193  0.202  0.337  0.337
    eigenvectors:
  0.000  0.000  1.000  0.000  0.000
  0.371  0.226  0.000  0.306  0.097
  0.226  0.371  0.000  0.097  0.306
  0.023  0.380  0.000  0.087  0.510
  0.380  0.023  0.000  0.510  0.087
    occupations:
  0.202 -0.000 -0.000 -0.000 -0.000
 -0.000  0.251 -0.000 -0.055  0.043
 -0.000 -0.000  0.251  0.043  0.055
 -0.000 -0.055  0.043  0.279  0.000
 -0.000  0.043  0.055  0.000  0.279
   spin  2
    eigenvalues: 
  0.970  0.970  0.980  0.980  0.980
    eigenvectors:
  0.000  0.000  1.000  0.000  0.000
  0.418  0.104  0.000  0.331  0.147
  0.104  0.418  0.000  0.147  0.331
  0.048  0.430  0.000  0.020  0.502
  0.430  0.048  0.000  0.502  0.020
    occupations:
  0.980 -0.000 -0.000 -0.000 -0.000
 -0.000  0.975 -0.000  0.003 -0.003
 -0.000 -0.000  0.975 -0.003 -0.003
 -0.000  0.003 -0.003  0.976  0.000
 -0.000 -0.003 -0.003  0.000  0.976
atomic mag. moment =  -3.61870
atom    4   Tr[ns(na)] (up, down, total) =   4.86752  1.18184  6.04936
   spin  1
    eigenvalues: 
  0.965  0.965  0.979  0.980  0.980
    eigenvectors:
  0.000  0.000  1.000  0.000  0.000
  0.007  0.550  0.000  0.044  0.399
  0.550  0.007  0.000  0.399  0.044
  0.184  0.259  0.000  0.126  0.431
  0.259  0.184  0.000  0.431  0.126
    occupations:
  0.979 -0.000 -0.000 -0.000 -0.000
 -0.000  0.971 -0.000 -0.005 -0.005
 -0.000 -0.000  0.971 -0.005  0.005
 -0.000 -0.005 -0.005  0.973  0.000
 -0.000 -0.005  0.005  0.000  0.973
   spin  2
    eigenvalues: 
  0.175  0.175  0.186  0.323  0.323
    eigenvectors:
  0.000  0.000  1.000  0.000  0.000
  0.003  0.533  0.000  0.005  0.458
  0.533  0.003  0.000  0.458  0.005
  0.172  0.291  0.000  0.186  0.350
  0.291  0.172  0.000  0.350  0.186
    occupations:
  0.186 -0.000 -0.000 -0.000 -0.000
 -0.000  0.244 -0.000  0.055  0.050
 -0.000 -0.000  0.244  0.050 -0.055
 -0.000  0.055  0.050  0.254  0.000
 -0.000  0.050 -0.055  0.000  0.254
atomic mag. moment =   3.68568
atom    5   Tr[ns(na)] (up, down, total) =   4.90061  1.08056  5.98117
   spin  1
    eigenvalues: 
  0.978  0.978  0.981  0.982  0.982
    eigenvectors:
  0.000  0.000  1.000  0.000  0.000
  0.439  0.014  0.000  0.419  0.129
  0.014  0.439  0.000  0.129  0.419
  0.101  0.447  0.000  0.006  0.447
  0.447  0.101  0.000  0.447  0.006
    occupations:
  0.981 -0.000 -0.000 -0.000 -0.000
 -0.000  0.980 -0.000  0.001 -0.002
 -0.000 -0.000  0.980 -0.002 -0.001
 -0.000  0.001 -0.002  0.980  0.000
 -0.000 -0.002 -0.001  0.000  0.980
   spin  2
    eigenvalues: 
  0.152  0.159  0.159  0.305  0.305
    eigenvectors:
  1.000  0.000  0.000  0.000  0.000
  0.000  0.368  0.027  0.568  0.037
  0.000  0.027  0.368  0.037  0.568
  0.000  0.057  0.548  0.041  0.354
  0.000  0.548  0.057  0.354  0.041
    occupations:
  0.152 -0.000 -0.000 -0.000 -0.000
 -0.000  0.247 -0.000 -0.039  0.060
 -0.000 -0.000  0.247  0.060  0.039
 -0.000 -0.039  0.060  0.217  0.000
 -0.000  0.060  0.039  0.000  0.217
atomic mag. moment =   3.82006
atom    6   Tr[ns(na)] (up, down, total) =   4.86044  1.15752  6.01796
   spin  1
    eigenvalues: 
  0.960  0.960  0.979  0.981  0.981
    eigenvectors:
  0.000  0.000  1.000  0.000  0.000
  0.005  0.671  0.000  0.061  0.263
  0.671  0.005  0.000  0.263  0.061
  0.170  0.155  0.000  0.126  0.550
  0.155  0.170  0.000  0.550  0.126
    occupations:
  0.979 -0.000 -0.000 -0.000 -0.000
 -0.000  0.967 -0.000 -0.006 -0.008
 -0.000 -0.000  0.967 -0.008  0.006
 -0.000 -0.006 -0.008  0.974  0.000
 -0.000 -0.008  0.006  0.000  0.974
   spin  2
    eigenvalues: 
  0.158  0.168  0.168  0.332  0.332
    eigenvectors:
  1.000  0.000  0.000  0.000  0.000
  0.000  0.019  0.280  0.000  0.701
  0.000  0.280  0.019  0.701  0.000
  0.000  0.172  0.529  0.145  0.154
  0.000  0.529  0.172  0.154  0.145
    occupations:
  0.158 -0.000 -0.000 -0.000 -0.000
 -0.000  0.283 -0.000  0.053  0.052
 -0.000 -0.000  0.283  0.052 -0.053
 -0.000  0.053  0.052  0.217  0.000
 -0.000  0.052 -0.053  0.000  0.217
atomic mag. moment =   3.70291
N of occupied +U levels =   36.325631
 --- exit write_ns ---

     negative rho (up, down):  1.216E-01 1.216E-01
 --- in v_hubbard ---
Hubbard energy    0.6413
 -------

     total cpu time spent up to now is     1323.1 secs

     total energy              =   -3194.15292762 Ry
     estimated scf accuracy    <       0.02225931 Ry

     total magnetization       =     0.00 Bohr mag/cell
     absolute magnetization    =    27.58 Bohr mag/cell

     iteration #  4     ecut=    30.00 Ry     beta= 0.40
     CG style diagonalization
     ethr =  5.08E-06,  avg # of iterations =  3.0
 --- enter write_ns ---
 LDA+U parameters:
U( 3)     =  0.50000000
alpha( 3) =  0.20000000
U( 4)     =  0.50000000
alpha( 4) =  0.20000000
atom    1   Tr[ns(na)] (up, down, total) =   1.10913  4.90611  6.01524
   spin  1
    eigenvalues: 
  0.158  0.165  0.165  0.310  0.310
    eigenvectors:
  1.000  0.000  0.000  0.000  0.000
  0.000  0.074  0.320  0.024  0.582
  0.000  0.320  0.074  0.582  0.024
  0.000  0.167  0.439  0.203  0.191
  0.000  0.439  0.167  0.191  0.203
    occupations:
  0.158 -0.000 -0.000 -0.000 -0.000
 -0.000  0.253 -0.000  0.038  0.060
 -0.000 -0.000  0.253  0.060 -0.038
 -0.000  0.038  0.060  0.222  0.000
 -0.000  0.060 -0.038  0.000  0.222
   spin  2
    eigenvalues: 
  0.980  0.980  0.981  0.982  0.982
    eigenvectors:
  0.000  0.000  1.000  0.000  0.000
  0.087  0.253  0.000  0.134  0.526
  0.253  0.087  0.000  0.526  0.134
  0.237  0.423  0.000  0.143  0.198
  0.423  0.237  0.000  0.198  0.143
    occupations:
  0.981 -0.000 -0.000 -0.000 -0.000
 -0.000  0.982 -0.000 -0.000 -0.001
 -0.000 -0.000  0.982 -0.001  0.000
 -0.000 -0.000 -0.001  0.981  0.000
 -0.000 -0.001  0.000  0.000  0.981
atomic mag. moment =  -3.79699
atom    2   Tr[ns(na)] (up, down, total) =   1.16184  4.87044  6.03228
   spin  1
    eigenvalues: 
  0.159  0.169  0.169  0.332  0.332
    eigenvectors:
  1.000  0.000  0.000  0.000  0.000
  0.000  0.232  0.058  0.296  0.414
  0.000  0.058  0.232  0.414  0.296
  0.000  0.092  0.618  0.000  0.290
  0.000  0.618  0.092  0.290  0.000
    occupations:
  0.159 -0.000 -0.000 -0.000 -0.000
 -0.000  0.285 -0.000 -0.055  0.050
 -0.000 -0.000  0.285  0.050  0.055
 -0.000 -0.055  0.050  0.216  0.000
 -0.000  0.050  0.055  0.000  0.216
   spin  2
    eigenvalues: 
  0.965  0.965  0.980  0.981  0.981
    eigenvectors:
  0.000  0.000  1.000  0.000  0.000
  0.396  0.288  0.000  0.270  0.046
  0.288  0.396  0.000  0.046  0.270
  0.000  0.315  0.000  0.053  0.632
  0.315  0.000  0.000  0.632  0.053
    occupations:
  0.980 -0.000 -0.000 -0.000 -0.000
 -0.000  0.970 -0.000  0.005 -0.006
 -0.000 -0.000  0.970 -0.006 -0.005
 -0.000  0.005 -0.006  0.976  0.000
 -0.000 -0.006 -0.005  0.000  0.976
atomic mag. moment =  -3.70860
atom    3   Tr[ns(na)] (up, down, total) =   1.17324  4.87458  6.04782
   spin  1
    eigenvalues: 
  0.174  0.174  0.184  0.321  0.321
    eigenvectors:
  0.000  0.000  1.000  0.000  0.000
  0.382  0.174  0.000  0.353  0.091
  0.174  0.382  0.000  0.091  0.353
  0.028  0.416  0.000  0.076  0.480
  0.416  0.028  0.000  0.480  0.076
    occupations:
  0.184 -0.000 -0.000 -0.000 -0.000
 -0.000  0.239 -0.000 -0.055  0.048
 -0.000 -0.000  0.239  0.048  0.055
 -0.000 -0.055  0.048  0.255  0.000
 -0.000  0.048  0.055  0.000  0.255
   spin  2
    eigenvalues: 
  0.968  0.968  0.979  0.980  0.980
    eigenvectors:
  0.000  0.000  1.000  0.000  0.000
  0.429  0.096  0.000  0.337  0.139
  0.096  0.429  0.000  0.139  0.337
  0.049  0.427  0.000  0.020  0.504
  0.427  0.049  0.000  0.504  0.020
    occupations:
  0.979 -0.000 -0.000 -0.000 -0.000
 -0.000  0.974 -0.000  0.004 -0.004
 -0.000 -0.000  0.974 -0.004 -0.004
 -0.000  0.004 -0.004  0.974  0.000
 -0.000 -0.004 -0.004  0.000  0.974
atomic mag. moment =  -3.70135
atom    4   Tr[ns(na)] (up, down, total) =   4.87409  1.20150  6.07559
   spin  1
    eigenvalues: 
  0.968  0.968  0.979  0.980  0.980
    eigenvectors:
  0.000  0.000  1.000  0.000  0.000
  0.006  0.529  0.000  0.035  0.430
  0.529  0.006  0.000  0.430  0.035
  0.183  0.282  0.000  0.126  0.409
  0.282  0.183  0.000  0.409  0.126
    occupations:
  0.979 -0.000 -0.000 -0.000 -0.000
 -0.000  0.973 -0.000 -0.004 -0.004
 -0.000 -0.000  0.973 -0.004  0.004
 -0.000 -0.004 -0.004  0.974  0.000
 -0.000 -0.004  0.004  0.000  0.974
   spin  2
    eigenvalues: 
  0.179  0.179  0.191  0.326  0.326
    eigenvectors:
  0.000  0.000  1.000  0.000  0.000
  0.001  0.558  0.000  0.004  0.438
  0.558  0.001  0.000  0.438  0.004
  0.170  0.271  0.000  0.186  0.372
  0.271  0.170  0.000  0.372  0.186
    occupations:
  0.191 -0.000 -0.000 -0.000 -0.000
 -0.000  0.244 -0.000  0.055  0.048
 -0.000 -0.000  0.244  0.048 -0.055
 -0.000  0.055  0.048  0.261  0.000
 -0.000  0.048 -0.055  0.000  0.261
atomic mag. moment =   3.67260
atom    5   Tr[ns(na)] (up, down, total) =   4.89813  1.07968  5.97781
   spin  1
    eigenvalues: 
  0.977  0.977  0.981  0.982  0.982
    eigenvectors:
  0.000  0.000  1.000  0.000  0.000
  0.403  0.061  0.000  0.364  0.172
  0.061  0.403  0.000  0.172  0.364
  0.075  0.461  0.000  0.011  0.454
  0.461  0.075  0.000  0.454  0.011
    occupations:
  0.981 -0.000 -0.000 -0.000 -0.000
 -0.000  0.979 -0.000  0.002 -0.002
 -0.000 -0.000  0.979 -0.002 -0.002
 -0.000  0.002 -0.002  0.979  0.000
 -0.000 -0.002 -0.002  0.000  0.979
   spin  2
    eigenvalues: 
  0.152  0.159  0.159  0.305  0.305
    eigenvectors:
  1.000  0.000  0.000  0.000  0.000
  0.000  0.367  0.027  0.569  0.037
  0.000  0.027  0.367  0.037  0.569
  0.000  0.056  0.550  0.040  0.353
  0.000  0.550  0.056  0.353  0.040
    occupations:
  0.152 -0.000 -0.000 -0.000 -0.000
 -0.000  0.247 -0.000 -0.039  0.060
 -0.000 -0.000  0.247  0.060  0.039
 -0.000 -0.039  0.060  0.217  0.000
 -0.000  0.060  0.039  0.000  0.217
atomic mag. moment =   3.81844
atom    6   Tr[ns(na)] (up, down, total) =   4.86907  1.17756  6.04663
   spin  1
    eigenvalues: 
  0.964  0.964  0.980  0.981  0.981
    eigenvectors:
  0.000  0.000  1.000  0.000  0.000
  0.004  0.664  0.000  0.054  0.278
  0.664  0.004  0.000  0.278  0.054
  0.167  0.165  0.000  0.127  0.541
  0.165  0.167  0.000  0.541  0.127
    occupations:
  0.980 -0.000 -0.000 -0.000 -0.000
 -0.000  0.969 -0.000 -0.005 -0.006
 -0.000 -0.000  0.969 -0.006  0.005
 -0.000 -0.005 -0.006  0.975  0.000
 -0.000 -0.006  0.005  0.000  0.975
   spin  2
    eigenvalues: 
  0.162  0.172  0.172  0.336  0.336
    eigenvectors:
  1.000  0.000  0.000  0.000  0.000
  0.000  0.014  0.274  0.000  0.712
  0.000  0.274  0.014  0.712  0.000
  0.000  0.173  0.540  0.136  0.152
  0.000  0.540  0.173  0.152  0.136
    occupations:
  0.162 -0.000 -0.000 -0.000 -0.000
 -0.000  0.289 -0.000  0.055  0.050
 -0.000 -0.000  0.289  0.050 -0.055
 -0.000  0.055  0.050  0.219  0.000
 -0.000  0.050 -0.055  0.000  0.219
atomic mag. moment =   3.69151
N of occupied +U levels =   36.195368
 --- exit write_ns ---

     negative rho (up, down):  1.216E-01 1.216E-01
 --- in v_hubbard ---
Hubbard energy    0.6411
 -------

     total cpu time spent up to now is     1410.6 secs

     total energy              =   -3194.15449089 Ry
     estimated scf accuracy    <       0.00207486 Ry

     total magnetization       =    -0.05 Bohr mag/cell
     absolute magnetization    =    27.64 Bohr mag/cell

     iteration #  5     ecut=    30.00 Ry     beta= 0.40
     CG style diagonalization
     ethr =  7.06E-07,  avg # of iterations =  3.0
 --- enter write_ns ---
 LDA+U parameters:
U( 3)     =  0.50000000
alpha( 3) =  0.20000000
U( 4)     =  0.50000000
alpha( 4) =  0.20000000
atom    1   Tr[ns(na)] (up, down, total) =   1.09614  4.90380  5.99994
   spin  1
    eigenvalues: 
  0.155  0.163  0.163  0.308  0.308
    eigenvectors:
  1.000  0.000  0.000  0.000  0.000
  0.000  0.074  0.320  0.023  0.583
  0.000  0.320  0.074  0.583  0.023
  0.000  0.166  0.440  0.203  0.190
  0.000  0.440  0.166  0.190  0.203
    occupations:
  0.155 -0.000 -0.000 -0.000 -0.000
 -0.000  0.251 -0.000  0.038  0.060
 -0.000 -0.000  0.251  0.060 -0.038
 -0.000  0.038  0.060  0.220  0.000
 -0.000  0.060 -0.038  0.000  0.220
   spin  2
    eigenvalues: 
  0.979  0.979  0.981  0.982  0.982
    eigenvectors:
  0.000  0.000  1.000  0.000  0.000
  0.042  0.351  0.000  0.074  0.532
  0.351  0.042  0.000  0.532  0.074
  0.223  0.383  0.000  0.136  0.257
  0.383  0.223  0.000  0.257  0.136
    occupations:
  0.981 -0.000 -0.000 -0.000 -0.000
 -0.000  0.981 -0.000 -0.001 -0.001
 -0.000 -0.000  0.981 -0.001  0.001
 -0.000 -0.001 -0.001  0.980  0.000
 -0.000 -0.001  0.001  0.000  0.980
atomic mag. moment =  -3.80766
atom    2   Tr[ns(na)] (up, down, total) =   1.17040  4.87112  6.04152
   spin  1
    eigenvalues: 
  0.161  0.171  0.171  0.334  0.334
    eigenvectors:
  1.000  0.000  0.000  0.000  0.000
  0.000  0.231  0.058  0.292  0.419
  0.000  0.058  0.231  0.419  0.292
  0.000  0.093  0.619  0.000  0.288
  0.000  0.619  0.093  0.288  0.000
    occupations:
  0.161 -0.000 -0.000 -0.000 -0.000
 -0.000  0.287 -0.000 -0.055  0.050
 -0.000 -0.000  0.287  0.050  0.055
 -0.000 -0.055  0.050  0.218  0.000
 -0.000  0.050  0.055  0.000  0.218
   spin  2
    eigenvalues: 
  0.965  0.965  0.980  0.981  0.981
    eigenvectors:
  0.000  0.000  1.000  0.000  0.000
  0.404  0.276  0.000  0.271  0.049
  0.276  0.404  0.000  0.049  0.271
  0.000  0.320  0.000  0.052  0.628
  0.320  0.000  0.000  0.628  0.052
    occupations:
  0.980 -0.000 -0.000 -0.000 -0.000
 -0.000  0.970 -0.000  0.005 -0.006
 -0.000 -0.000  0.970 -0.006 -0.005
 -0.000  0.005 -0.006  0.976  0.000
 -0.000 -0.006 -0.005  0.000  0.976
atomic mag. moment =  -3.70071
atom    3   Tr[ns(na)] (up, down, total) =   1.18626  4.87520  6.06146
   spin  1
    eigenvalues: 
  0.176  0.176  0.187  0.323  0.323
    eigenvectors:
  0.000  0.000  1.000  0.000  0.000
  0.381  0.177  0.000  0.349  0.093
  0.177  0.381  0.000  0.093  0.349
  0.028  0.413  0.000  0.076  0.482
  0.413  0.028  0.000  0.482  0.076
    occupations:
  0.187 -0.000 -0.000 -0.000 -0.000
 -0.000  0.241 -0.000 -0.055  0.048
 -0.000 -0.000  0.241  0.048  0.055
 -0.000 -0.055  0.048  0.258  0.000
 -0.000  0.048  0.055  0.000  0.258
   spin  2
    eigenvalues: 
  0.968  0.968  0.979  0.980  0.980
    eigenvectors:
  0.000  0.000  1.000  0.000  0.000
  0.425  0.101  0.000  0.333  0.141
  0.101  0.425  0.000  0.141  0.333
  0.047  0.427  0.000  0.021  0.505
  0.427  0.047  0.000  0.505  0.021
    occupations:
  0.979 -0.000 -0.000 -0.000 -0.000
 -0.000  0.974 -0.000  0.004 -0.004
 -0.000 -0.000  0.974 -0.004 -0.004
 -0.000  0.004 -0.004  0.974  0.000
 -0.000 -0.004 -0.004  0.000  0.974
atomic mag. moment =  -3.68894
atom    4   Tr[ns(na)] (up, down, total) =   4.87335  1.18346  6.05681
   spin  1
    eigenvalues: 
  0.967  0.967  0.979  0.980  0.980
    eigenvectors:
  0.000  0.000  1.000  0.000  0.000
  0.006  0.527  0.000  0.036  0.431
  0.527  0.006  0.000  0.431  0.036
  0.184  0.283  0.000  0.126  0.407
  0.283  0.184  0.000  0.407  0.126
    occupations:
  0.979 -0.000 -0.000 -0.000 -0.000
 -0.000  0.973 -0.000 -0.004 -0.004
 -0.000 -0.000  0.973 -0.004  0.004
 -0.000 -0.004 -0.004  0.974  0.000
 -0.000 -0.004  0.004  0.000  0.974
   spin  2
    eigenvalues: 
  0.176  0.176  0.187  0.323  0.323
    eigenvectors:
  0.000  0.000  1.000  0.000  0.000
  0.001  0.554  0.000  0.004  0.440
  0.554  0.001  0.000  0.440  0.004
  0.171  0.274  0.000  0.186  0.369
  0.274  0.171  0.000  0.369  0.186
    occupations:
  0.187 -0.000 -0.000 -0.000 -0.000
 -0.000  0.241 -0.000  0.055  0.048
 -0.000 -0.000  0.241  0.048 -0.055
 -0.000  0.055  0.048  0.257  0.000
 -0.000  0.048 -0.055  0.000  0.257
atomic mag. moment =   3.68989
atom    5   Tr[ns(na)] (up, down, total) =   4.90061  1.08719  5.98780
   spin  1
    eigenvalues: 
  0.978  0.978  0.981  0.982  0.982
    eigenvectors:
  0.000  0.000  1.000  0.000  0.000
  0.406  0.036  0.000  0.389  0.169
  0.036  0.406  0.000  0.169  0.389
  0.091  0.468  0.000  0.006  0.435
  0.468  0.091  0.000  0.435  0.006
    occupations:
  0.981 -0.000 -0.000 -0.000 -0.000
 -0.000  0.980 -0.000  0.001 -0.002
 -0.000 -0.000  0.980 -0.002 -0.001
 -0.000  0.001 -0.002  0.980  0.000
 -0.000 -0.002 -0.001  0.000  0.980
   spin  2
    eigenvalues: 
  0.153  0.161  0.161  0.306  0.306
    eigenvectors:
  1.000  0.000  0.000  0.000  0.000
  0.000  0.367  0.027  0.570  0.037
  0.000  0.027  0.367  0.037  0.570
  0.000  0.057  0.549  0.041  0.353
  0.000  0.549  0.057  0.353  0.041
    occupations:
  0.153 -0.000 -0.000 -0.000 -0.000
 -0.000  0.249 -0.000 -0.039  0.060
 -0.000 -0.000  0.249  0.060  0.039
 -0.000 -0.039  0.060  0.218  0.000
 -0.000  0.060  0.039  0.000  0.218
atomic mag. moment =   3.81342
atom    6   Tr[ns(na)] (up, down, total) =   4.86862  1.16494  6.03356
   spin  1
    eigenvalues: 
  0.964  0.964  0.980  0.981  0.981
    eigenvectors:
  0.000  0.000  1.000  0.000  0.000
  0.004  0.669  0.000  0.056  0.271
  0.669  0.004  0.000  0.271  0.056
  0.167  0.160  0.000  0.127  0.546
  0.160  0.167  0.000  0.546  0.127
    occupations:
  0.980 -0.000 -0.000 -0.000 -0.000
 -0.000  0.969 -0.000 -0.005 -0.006
 -0.000 -0.000  0.969 -0.006  0.005
 -0.000 -0.005 -0.006  0.975  0.000
 -0.000 -0.006  0.005  0.000  0.975
   spin  2
    eigenvalues: 
  0.160  0.169  0.169  0.333  0.333
    eigenvectors:
  1.000  0.000  0.000  0.000  0.000
  0.000  0.014  0.276  0.000  0.710
  0.000  0.276  0.014  0.710  0.000
  0.000  0.173  0.537  0.137  0.153
  0.000  0.537  0.173  0.153  0.137
    occupations:
  0.160 -0.000 -0.000 -0.000 -0.000
 -0.000  0.286 -0.000  0.055  0.050
 -0.000 -0.000  0.286  0.050 -0.055
 -0.000  0.055  0.050  0.217  0.000
 -0.000  0.050 -0.055  0.000  0.217
atomic mag. moment =   3.70368
N of occupied +U levels =   36.181089
 --- exit write_ns ---

     negative rho (up, down):  1.216E-01 1.216E-01
 --- in v_hubbard ---
Hubbard energy    0.6405
 -------

     total cpu time spent up to now is     1499.2 secs

     total energy              =   -3194.15463650 Ry
     estimated scf accuracy    <       0.00050325 Ry

     total magnetization       =    -0.02 Bohr mag/cell
     absolute magnetization    =    27.65 Bohr mag/cell

     iteration #  6     ecut=    30.00 Ry     beta= 0.40
     CG style diagonalization
     ethr =  1.71E-07,  avg # of iterations =  3.0
 --- enter write_ns ---
 LDA+U parameters:
U( 3)     =  0.50000000
alpha( 3) =  0.20000000
U( 4)     =  0.50000000
alpha( 4) =  0.20000000
atom    1   Tr[ns(na)] (up, down, total) =   1.09428  4.90285  5.99713
   spin  1
    eigenvalues: 
  0.154  0.162  0.162  0.308  0.308
    eigenvectors:
  1.000  0.000  0.000  0.000  0.000
  0.000  0.074  0.319  0.023  0.584
  0.000  0.319  0.074  0.584  0.023
  0.000  0.166  0.442  0.202  0.190
  0.000  0.442  0.166  0.190  0.202
    occupations:
  0.154 -0.000 -0.000 -0.000 -0.000
 -0.000  0.251 -0.000  0.038  0.060
 -0.000 -0.000  0.251  0.060 -0.038
 -0.000  0.038  0.060  0.219  0.000
 -0.000  0.060 -0.038  0.000  0.219
   spin  2
    eigenvalues: 
  0.979  0.979  0.981  0.982  0.982
    eigenvectors:
  0.000  0.000  1.000  0.000  0.000
  0.032  0.379  0.000  0.062  0.527
  0.379  0.032  0.000  0.527  0.062
  0.217  0.372  0.000  0.133  0.278
  0.372  0.217  0.000  0.278  0.133
    occupations:
  0.981 -0.000 -0.000 -0.000 -0.000
 -0.000  0.981 -0.000 -0.001 -0.001
 -0.000 -0.000  0.981 -0.001  0.001
 -0.000 -0.001 -0.001  0.980  0.000
 -0.000 -0.001  0.001  0.000  0.980
atomic mag. moment =  -3.80856
atom    2   Tr[ns(na)] (up, down, total) =   1.16883  4.87038  6.03921
   spin  1
    eigenvalues: 
  0.160  0.170  0.170  0.334  0.334
    eigenvectors:
  1.000  0.000  0.000  0.000  0.000
  0.000  0.232  0.058  0.294  0.416
  0.000  0.058  0.232  0.416  0.294
  0.000  0.092  0.618  0.000  0.289
  0.000  0.618  0.092  0.289  0.000
    occupations:
  0.160 -0.000 -0.000 -0.000 -0.000
 -0.000  0.287 -0.000 -0.055  0.050
 -0.000 -0.000  0.287  0.050  0.055
 -0.000 -0.055  0.050  0.218  0.000
 -0.000  0.050  0.055  0.000  0.218
   spin  2
    eigenvalues: 
  0.965  0.965  0.980  0.981  0.981
    eigenvectors:
  0.000  0.000  1.000  0.000  0.000
  0.406  0.272  0.000  0.272  0.051
  0.272  0.406  0.000  0.051  0.272
  0.000  0.322  0.000  0.051  0.626
  0.322  0.000  0.000  0.626  0.051
    occupations:
  0.980 -0.000 -0.000 -0.000 -0.000
 -0.000  0.970 -0.000  0.005 -0.006
 -0.000 -0.000  0.970 -0.006 -0.005
 -0.000  0.005 -0.006  0.976  0.000
 -0.000 -0.006 -0.005  0.000  0.976
atomic mag. moment =  -3.70154
atom    3   Tr[ns(na)] (up, down, total) =   1.18507  4.87456  6.05962
   spin  1
    eigenvalues: 
  0.176  0.176  0.187  0.323  0.323
    eigenvectors:
  0.000  0.000  1.000  0.000  0.000
  0.381  0.176  0.000  0.350  0.093
  0.176  0.381  0.000  0.093  0.350
  0.028  0.415  0.000  0.076  0.481
  0.415  0.028  0.000  0.481  0.076
    occupations:
  0.187 -0.000 -0.000 -0.000 -0.000
 -0.000  0.241 -0.000 -0.055  0.048
 -0.000 -0.000  0.241  0.048  0.055
 -0.000 -0.055  0.048  0.258  0.000
 -0.000  0.048  0.055  0.000  0.258
   spin  2
    eigenvalues: 
  0.968  0.968  0.979  0.980  0.980
    eigenvectors:
  0.000  0.000  1.000  0.000  0.000
  0.425  0.104  0.000  0.331  0.140
  0.104  0.425  0.000  0.140  0.331
  0.046  0.425  0.000  0.021  0.508
  0.425  0.046  0.000  0.508  0.021
    occupations:
  0.979 -0.000 -0.000 -0.000 -0.000
 -0.000  0.974 -0.000  0.004 -0.004
 -0.000 -0.000  0.974 -0.004 -0.004
 -0.000  0.004 -0.004  0.974  0.000
 -0.000 -0.004 -0.004  0.000  0.974
atomic mag. moment =  -3.68949
atom    4   Tr[ns(na)] (up, down, total) =   4.87422  1.18624  6.06046
   spin  1
    eigenvalues: 
  0.968  0.968  0.979  0.980  0.980
    eigenvectors:
  0.000  0.000  1.000  0.000  0.000
  0.007  0.524  0.000  0.036  0.433
  0.524  0.007  0.000  0.433  0.036
  0.185  0.284  0.000  0.127  0.404
  0.284  0.185  0.000  0.404  0.127
    occupations:
  0.979 -0.000 -0.000 -0.000 -0.000
 -0.000  0.973 -0.000 -0.004 -0.004
 -0.000 -0.000  0.973 -0.004  0.004
 -0.000 -0.004 -0.004  0.974  0.000
 -0.000 -0.004  0.004  0.000  0.974
   spin  2
    eigenvalues: 
  0.176  0.176  0.187  0.323  0.323
    eigenvectors:
  0.000  0.000  1.000  0.000  0.000
  0.001  0.555  0.000  0.004  0.439
  0.555  0.001  0.000  0.439  0.004
  0.171  0.273  0.000  0.187  0.370
  0.273  0.171  0.000  0.370  0.187
    occupations:
  0.187 -0.000 -0.000 -0.000 -0.000
 -0.000  0.241 -0.000  0.055  0.048
 -0.000 -0.000  0.241  0.048 -0.055
 -0.000  0.055  0.048  0.258  0.000
 -0.000  0.048 -0.055  0.000  0.258
atomic mag. moment =   3.68798
atom    5   Tr[ns(na)] (up, down, total) =   4.90170  1.09063  5.99232
   spin  1
    eigenvalues: 
  0.978  0.978  0.981  0.982  0.982
    eigenvectors:
  0.000  0.000  1.000  0.000  0.000
  0.403  0.025  0.000  0.404  0.168
  0.025  0.403  0.000  0.168  0.404
  0.100  0.472  0.000  0.004  0.423
  0.472  0.100  0.000  0.423  0.004
    occupations:
  0.981 -0.000 -0.000 -0.000 -0.000
 -0.000  0.980 -0.000  0.001 -0.001
 -0.000 -0.000  0.980 -0.001 -0.001
 -0.000  0.001 -0.001  0.980  0.000
 -0.000 -0.001 -0.001  0.000  0.980
   spin  2
    eigenvalues: 
  0.154  0.162  0.162  0.307  0.307
    eigenvectors:
  1.000  0.000  0.000  0.000  0.000
  0.000  0.366  0.026  0.570  0.038
  0.000  0.026  0.366  0.038  0.570
  0.000  0.057  0.550  0.039  0.353
  0.000  0.550  0.057  0.353  0.039
    occupations:
  0.154 -0.000 -0.000 -0.000 -0.000
 -0.000  0.250 -0.000 -0.039  0.060
 -0.000 -0.000  0.250  0.060  0.039
 -0.000 -0.039  0.060  0.219  0.000
 -0.000  0.060  0.039  0.000  0.219
atomic mag. moment =   3.81107
atom    6   Tr[ns(na)] (up, down, total) =   4.86982  1.16924  6.03906
   spin  1
    eigenvalues: 
  0.964  0.964  0.980  0.981  0.981
    eigenvectors:
  0.000  0.000  1.000  0.000  0.000
  0.004  0.671  0.000  0.057  0.268
  0.671  0.004  0.000  0.268  0.057
  0.167  0.157  0.000  0.127  0.548
  0.157  0.167  0.000  0.548  0.127
    occupations:
  0.980 -0.000 -0.000 -0.000 -0.000
 -0.000  0.970 -0.000 -0.005 -0.006
 -0.000 -0.000  0.970 -0.006  0.005
 -0.000 -0.005 -0.006  0.975  0.000
 -0.000 -0.006  0.005  0.000  0.975
   spin  2
    eigenvalues: 
  0.161  0.170  0.170  0.334  0.334
    eigenvectors:
  1.000  0.000  0.000  0.000  0.000
  0.000  0.014  0.275  0.000  0.710
  0.000  0.275  0.014  0.710  0.000
  0.000  0.172  0.538  0.137  0.153
  0.000  0.538  0.172  0.153  0.137
    occupations:
  0.161 -0.000 -0.000 -0.000 -0.000
 -0.000  0.287 -0.000  0.055  0.050
 -0.000 -0.000  0.287  0.050 -0.055
 -0.000  0.055  0.050  0.218  0.000
 -0.000  0.050 -0.055  0.000  0.218
atomic mag. moment =   3.70059
N of occupied +U levels =   36.187807
 --- exit write_ns ---

     negative rho (up, down):  1.216E-01 1.216E-01
 --- in v_hubbard ---
Hubbard energy    0.6396
 -------

     total cpu time spent up to now is     1587.8 secs

     total energy              =   -3194.15465704 Ry
     estimated scf accuracy    <       0.00013958 Ry

     total magnetization       =    -0.01 Bohr mag/cell
     absolute magnetization    =    27.65 Bohr mag/cell

     iteration #  7     ecut=    30.00 Ry     beta= 0.40
     CG style diagonalization
     ethr =  4.75E-08,  avg # of iterations =  3.0
 --- enter write_ns ---
 LDA+U parameters:
U( 3)     =  0.50000000
alpha( 3) =  0.20000000
U( 4)     =  0.50000000
alpha( 4) =  0.20000000
atom    1   Tr[ns(na)] (up, down, total) =   1.09837  4.90303  6.00139
   spin  1
    eigenvalues: 
  0.155  0.163  0.163  0.309  0.309
    eigenvectors:
  1.000  0.000  0.000  0.000  0.000
  0.000  0.074  0.317  0.023  0.586
  0.000  0.317  0.074  0.586  0.023
  0.000  0.166  0.443  0.202  0.189
  0.000  0.443  0.166  0.189  0.202
    occupations:
  0.155 -0.000 -0.000 -0.000 -0.000
 -0.000  0.252 -0.000  0.038  0.060
 -0.000 -0.000  0.252  0.060 -0.038
 -0.000  0.038  0.060  0.220  0.000
 -0.000  0.060 -0.038  0.000  0.220
   spin  2
    eigenvalues: 
  0.979  0.979  0.981  0.982  0.982
    eigenvectors:
  0.000  0.000  1.000  0.000  0.000
  0.032  0.378  0.000  0.060  0.530
  0.378  0.032  0.000  0.530  0.060
  0.216  0.374  0.000  0.133  0.276
  0.374  0.216  0.000  0.276  0.133
    occupations:
  0.981 -0.000 -0.000 -0.000 -0.000
 -0.000  0.981 -0.000 -0.001 -0.001
 -0.000 -0.000  0.981 -0.001  0.001
 -0.000 -0.001 -0.001  0.980  0.000
 -0.000 -0.001  0.001  0.000  0.980
atomic mag. moment =  -3.80466
atom    2   Tr[ns(na)] (up, down, total) =   1.17220  4.87107  6.04327
   spin  1
    eigenvalues: 
  0.161  0.171  0.171  0.335  0.335
    eigenvectors:
  1.000  0.000  0.000  0.000  0.000
  0.000  0.233  0.057  0.296  0.414
  0.000  0.057  0.233  0.414  0.296
  0.000  0.092  0.618  0.000  0.290
  0.000  0.618  0.092  0.290  0.000
    occupations:
  0.161 -0.000 -0.000 -0.000 -0.000
 -0.000  0.287 -0.000 -0.055  0.050
 -0.000 -0.000  0.287  0.050  0.055
 -0.000 -0.055  0.050  0.218  0.000
 -0.000  0.050  0.055  0.000  0.218
   spin  2
    eigenvalues: 
  0.965  0.965  0.980  0.981  0.981
    eigenvectors:
  0.000  0.000  1.000  0.000  0.000
  0.408  0.269  0.000  0.272  0.051
  0.269  0.408  0.000  0.051  0.272
  0.000  0.323  0.000  0.051  0.626
  0.323  0.000  0.000  0.626  0.051
    occupations:
  0.980 -0.000 -0.000 -0.000 -0.000
 -0.000  0.970 -0.000  0.005 -0.006
 -0.000 -0.000  0.970 -0.006 -0.005
 -0.000  0.005 -0.006  0.976  0.000
 -0.000 -0.006 -0.005  0.000  0.976
atomic mag. moment =  -3.69886
atom    3   Tr[ns(na)] (up, down, total) =   1.18543  4.87477  6.06020
   spin  1
    eigenvalues: 
  0.176  0.176  0.187  0.323  0.323
    eigenvectors:
  0.000  0.000  1.000  0.000  0.000
  0.382  0.174  0.000  0.352  0.092
  0.174  0.382  0.000  0.092  0.352
  0.028  0.415  0.000  0.076  0.480
  0.415  0.028  0.000  0.480  0.076
    occupations:
  0.187 -0.000 -0.000 -0.000 -0.000
 -0.000  0.241 -0.000 -0.055  0.048
 -0.000 -0.000  0.241  0.048  0.055
 -0.000 -0.055  0.048  0.258  0.000
 -0.000  0.048  0.055  0.000  0.258
   spin  2
    eigenvalues: 
  0.968  0.968  0.979  0.980  0.980
    eigenvectors:
  0.000  0.000  1.000  0.000  0.000
  0.425  0.105  0.000  0.331  0.140
  0.105  0.425  0.000  0.140  0.331
  0.046  0.425  0.000  0.021  0.508
  0.425  0.046  0.000  0.508  0.021
    occupations:
  0.979 -0.000 -0.000 -0.000 -0.000
 -0.000  0.974 -0.000  0.004 -0.004
 -0.000 -0.000  0.974 -0.004 -0.004
 -0.000  0.004 -0.004  0.974  0.000
 -0.000 -0.004 -0.004  0.000  0.974
atomic mag. moment =  -3.68934
atom    4   Tr[ns(na)] (up, down, total) =   4.87417  1.18413  6.05830
   spin  1
    eigenvalues: 
  0.968  0.968  0.979  0.980  0.980
    eigenvectors:
  0.000  0.000  1.000  0.000  0.000
  0.007  0.525  0.000  0.036  0.432
  0.525  0.007  0.000  0.432  0.036
  0.184  0.284  0.000  0.126  0.406
  0.284  0.184  0.000  0.406  0.126
    occupations:
  0.979 -0.000 -0.000 -0.000 -0.000
 -0.000  0.973 -0.000 -0.004 -0.004
 -0.000 -0.000  0.973 -0.004  0.004
 -0.000 -0.004 -0.004  0.974  0.000
 -0.000 -0.004  0.004  0.000  0.974
   spin  2
    eigenvalues: 
  0.176  0.176  0.187  0.323  0.323
    eigenvectors:
  0.000  0.000  1.000  0.000  0.000
  0.002  0.554  0.000  0.005  0.440
  0.554  0.002  0.000  0.440  0.005
  0.171  0.273  0.000  0.187  0.368
  0.273  0.171  0.000  0.368  0.187
    occupations:
  0.187 -0.000 -0.000 -0.000 -0.000
 -0.000  0.241 -0.000  0.055  0.048
 -0.000 -0.000  0.241  0.048 -0.055
 -0.000  0.055  0.048  0.257  0.000
 -0.000  0.048 -0.055  0.000  0.257
atomic mag. moment =   3.69004
atom    5   Tr[ns(na)] (up, down, total) =   4.90214  1.09582  5.99796
   spin  1
    eigenvalues: 
  0.978  0.978  0.981  0.982  0.982
    eigenvectors:
  0.000  0.000  1.000  0.000  0.000
  0.400  0.023  0.000  0.406  0.170
  0.023  0.400  0.000  0.170  0.406
  0.102  0.474  0.000  0.004  0.420
  0.474  0.102  0.000  0.420  0.004
    occupations:
  0.981 -0.000 -0.000 -0.000 -0.000
 -0.000  0.981 -0.000  0.001 -0.001
 -0.000 -0.000  0.981 -0.001 -0.001
 -0.000  0.001 -0.001  0.980  0.000
 -0.000 -0.001 -0.001  0.000  0.980
   spin  2
    eigenvalues: 
  0.154  0.163  0.163  0.308  0.308
    eigenvectors:
  1.000  0.000  0.000  0.000  0.000
  0.000  0.365  0.026  0.571  0.037
  0.000  0.026  0.365  0.037  0.571
  0.000  0.058  0.551  0.040  0.352
  0.000  0.551  0.058  0.352  0.040
    occupations:
  0.154 -0.000 -0.000 -0.000 -0.000
 -0.000  0.251 -0.000 -0.038  0.060
 -0.000 -0.000  0.251  0.060  0.038
 -0.000 -0.038  0.060  0.220  0.000
 -0.000  0.060  0.038  0.000  0.220
atomic mag. moment =   3.80632
atom    6   Tr[ns(na)] (up, down, total) =   4.87020  1.16900  6.03921
   spin  1
    eigenvalues: 
  0.965  0.965  0.980  0.981  0.981
    eigenvectors:
  0.000  0.000  1.000  0.000  0.000
  0.004  0.671  0.000  0.057  0.268
  0.671  0.004  0.000  0.268  0.057
  0.168  0.157  0.000  0.127  0.548
  0.157  0.168  0.000  0.548  0.127
    occupations:
  0.980 -0.000 -0.000 -0.000 -0.000
 -0.000  0.970 -0.000 -0.005 -0.006
 -0.000 -0.000  0.970 -0.006  0.005
 -0.000 -0.005 -0.006  0.975  0.000
 -0.000 -0.006  0.005  0.000  0.975
   spin  2
    eigenvalues: 
  0.161  0.170  0.170  0.334  0.334
    eigenvectors:
  1.000  0.000  0.000  0.000  0.000
  0.000  0.015  0.276  0.000  0.709
  0.000  0.276  0.015  0.709  0.000
  0.000  0.173  0.537  0.138  0.153
  0.000  0.537  0.173  0.153  0.138
    occupations:
  0.161 -0.000 -0.000 -0.000 -0.000
 -0.000  0.286 -0.000  0.055  0.050
 -0.000 -0.000  0.286  0.050 -0.055
 -0.000  0.055  0.050  0.218  0.000
 -0.000  0.050 -0.055  0.000  0.218
atomic mag. moment =   3.70120
N of occupied +U levels =   36.200330
 --- exit write_ns ---

     negative rho (up, down):  1.216E-01 1.216E-01
 --- in v_hubbard ---
Hubbard energy    0.6394
 -------

     total cpu time spent up to now is     1677.3 secs

     total energy              =   -3194.15466330 Ry
     estimated scf accuracy    <       0.00006304 Ry

     total magnetization       =    -0.00 Bohr mag/cell
     absolute magnetization    =    27.65 Bohr mag/cell

     iteration #  8     ecut=    30.00 Ry     beta= 0.40
     CG style diagonalization
     ethr =  2.14E-08,  avg # of iterations =  3.0
 --- enter write_ns ---
 LDA+U parameters:
U( 3)     =  0.50000000
alpha( 3) =  0.20000000
U( 4)     =  0.50000000
alpha( 4) =  0.20000000
atom    1   Tr[ns(na)] (up, down, total) =   1.09418  4.90262  5.99680
   spin  1
    eigenvalues: 
  0.154  0.162  0.162  0.308  0.308
    eigenvectors:
  1.000  0.000  0.000  0.000  0.000
  0.000  0.073  0.318  0.023  0.586
  0.000  0.318  0.073  0.586  0.023
  0.000  0.166  0.443  0.202  0.189
  0.000  0.443  0.166  0.189  0.202
    occupations:
  0.154 -0.000 -0.000 -0.000 -0.000
 -0.000  0.251 -0.000  0.038  0.060
 -0.000 -0.000  0.251  0.060 -0.038
 -0.000  0.038  0.060  0.219  0.000
 -0.000  0.060 -0.038  0.000  0.219
   spin  2
    eigenvalues: 
  0.979  0.979  0.981  0.982  0.982
    eigenvectors:
  0.000  0.000  1.000  0.000  0.000
  0.029  0.386  0.000  0.058  0.527
  0.386  0.029  0.000  0.527  0.058
  0.215  0.370  0.000  0.133  0.282
  0.370  0.215  0.000  0.282  0.133
    occupations:
  0.981 -0.000 -0.000 -0.000 -0.000
 -0.000  0.981 -0.000 -0.001 -0.001
 -0.000 -0.000  0.981 -0.001  0.001
 -0.000 -0.001 -0.001  0.980  0.000
 -0.000 -0.001  0.001  0.000  0.980
atomic mag. moment =  -3.80844
atom    2   Tr[ns(na)] (up, down, total) =   1.17005  4.87048  6.04054
   spin  1
    eigenvalues: 
  0.161  0.170  0.170  0.334  0.334
    eigenvectors:
  1.000  0.000  0.000  0.000  0.000
  0.000  0.234  0.057  0.299  0.410
  0.000  0.057  0.234  0.410  0.299
  0.000  0.091  0.617  0.000  0.291
  0.000  0.617  0.091  0.291  0.000
    occupations:
  0.161 -0.000 -0.000 -0.000 -0.000
 -0.000  0.287 -0.000 -0.055  0.050
 -0.000 -0.000  0.287  0.050  0.055
 -0.000 -0.055  0.050  0.218  0.000
 -0.000  0.050  0.055  0.000  0.218
   spin  2
    eigenvalues: 
  0.965  0.965  0.980  0.981  0.981
    eigenvectors:
  0.000  0.000  1.000  0.000  0.000
  0.407  0.269  0.000  0.272  0.051
  0.269  0.407  0.000  0.051  0.272
  0.000  0.323  0.000  0.051  0.626
  0.323  0.000  0.000  0.626  0.051
    occupations:
  0.980 -0.000 -0.000 -0.000 -0.000
 -0.000  0.970 -0.000  0.005 -0.006
 -0.000 -0.000  0.970 -0.006 -0.005
 -0.000  0.005 -0.006  0.976  0.000
 -0.000 -0.006 -0.005  0.000  0.976
atomic mag. moment =  -3.70043
atom    3   Tr[ns(na)] (up, down, total) =   1.18883  4.87503  6.06386
   spin  1
    eigenvalues: 
  0.177  0.177  0.188  0.324  0.324
    eigenvectors:
  0.000  0.000  1.000  0.000  0.000
  0.382  0.175  0.000  0.351  0.092
  0.175  0.382  0.000  0.092  0.351
  0.028  0.415  0.000  0.076  0.481
  0.415  0.028  0.000  0.481  0.076
    occupations:
  0.188 -0.000 -0.000 -0.000 -0.000
 -0.000  0.242 -0.000 -0.055  0.048
 -0.000 -0.000  0.242  0.048  0.055
 -0.000 -0.055  0.048  0.259  0.000
 -0.000  0.048  0.055  0.000  0.259
   spin  2
    eigenvalues: 
  0.968  0.968  0.979  0.980  0.980
    eigenvectors:
  0.000  0.000  1.000  0.000  0.000
  0.424  0.106  0.000  0.330  0.140
  0.106  0.424  0.000  0.140  0.330
  0.045  0.425  0.000  0.021  0.508
  0.425  0.045  0.000  0.508  0.021
    occupations:
  0.979 -0.000 -0.000 -0.000 -0.000
 -0.000  0.974 -0.000  0.004 -0.004
 -0.000 -0.000  0.974 -0.004 -0.004
 -0.000  0.004 -0.004  0.974  0.000
 -0.000 -0.004 -0.004  0.000  0.974
atomic mag. moment =  -3.68620
atom    4   Tr[ns(na)] (up, down, total) =   4.87485  1.18849  6.06334
   spin  1
    eigenvalues: 
  0.968  0.968  0.979  0.980  0.980
    eigenvectors:
  0.000  0.000  1.000  0.000  0.000
  0.007  0.524  0.000  0.036  0.433
  0.524  0.007  0.000  0.433  0.036
  0.185  0.285  0.000  0.126  0.405
  0.285  0.185  0.000  0.405  0.126
    occupations:
  0.979 -0.000 -0.000 -0.000 -0.000
 -0.000  0.974 -0.000 -0.004 -0.004
 -0.000 -0.000  0.974 -0.004  0.004
 -0.000 -0.004 -0.004  0.974  0.000
 -0.000 -0.004  0.004  0.000  0.974
   spin  2
    eigenvalues: 
  0.177  0.177  0.188  0.324  0.324
    eigenvectors:
  0.000  0.000  1.000  0.000  0.000
  0.001  0.555  0.000  0.005  0.439
  0.555  0.001  0.000  0.439  0.005
  0.171  0.273  0.000  0.187  0.370
  0.273  0.171  0.000  0.370  0.187
    occupations:
  0.188 -0.000 -0.000 -0.000 -0.000
 -0.000  0.242 -0.000  0.055  0.048
 -0.000 -0.000  0.242  0.048 -0.055
 -0.000  0.055  0.048  0.259  0.000
 -0.000  0.048 -0.055  0.000  0.259
atomic mag. moment =   3.68636
atom    5   Tr[ns(na)] (up, down, total) =   4.90223  1.09297  5.99520
   spin  1
    eigenvalues: 
  0.978  0.978  0.981  0.982  0.982
    eigenvectors:
  0.000  0.000  1.000  0.000  0.000
  0.400  0.021  0.000  0.410  0.169
  0.021  0.400  0.000  0.169  0.410
  0.104  0.475  0.000  0.004  0.417
  0.475  0.104  0.000  0.417  0.004
    occupations:
  0.981 -0.000 -0.000 -0.000 -0.000
 -0.000  0.981 -0.000  0.001 -0.001
 -0.000 -0.000  0.981 -0.001 -0.001
 -0.000  0.001 -0.001  0.980  0.000
 -0.000 -0.001 -0.001  0.000  0.980
   spin  2
    eigenvalues: 
  0.154  0.162  0.162  0.307  0.307
    eigenvectors:
  1.000  0.000  0.000  0.000  0.000
  0.000  0.365  0.026  0.571  0.038
  0.000  0.026  0.365  0.038  0.571
  0.000  0.058  0.551  0.039  0.352
  0.000  0.551  0.058  0.352  0.039
    occupations:
  0.154 -0.000 -0.000 -0.000 -0.000
 -0.000  0.251 -0.000 -0.038  0.060
 -0.000 -0.000  0.251  0.060  0.038
 -0.000 -0.038  0.060  0.219  0.000
 -0.000  0.060  0.038  0.000  0.219
atomic mag. moment =   3.80926
atom    6   Tr[ns(na)] (up, down, total) =   4.87019  1.16932  6.03951
   spin  1
    eigenvalues: 
  0.964  0.964  0.980  0.981  0.981
    eigenvectors:
  0.000  0.000  1.000  0.000  0.000
  0.004  0.671  0.000  0.057  0.267
  0.671  0.004  0.000  0.267  0.057
  0.167  0.157  0.000  0.127  0.549
  0.157  0.167  0.000  0.549  0.127
    occupations:
  0.980 -0.000 -0.000 -0.000 -0.000
 -0.000  0.970 -0.000 -0.005 -0.006
 -0.000 -0.000  0.970 -0.006  0.005
 -0.000 -0.005 -0.006  0.975  0.000
 -0.000 -0.006  0.005  0.000  0.975
   spin  2
    eigenvalues: 
  0.161  0.170  0.170  0.334  0.334
    eigenvectors:
  1.000  0.000  0.000  0.000  0.000
  0.000  0.015  0.276  0.000  0.709
  0.000  0.276  0.015  0.709  0.000
  0.000  0.172  0.537  0.138  0.153
  0.000  0.537  0.172  0.153  0.138
    occupations:
  0.161 -0.000 -0.000 -0.000 -0.000
 -0.000  0.286 -0.000  0.055  0.050
 -0.000 -0.000  0.286  0.050 -0.055
 -0.000  0.055  0.050  0.218  0.000
 -0.000  0.050 -0.055  0.000  0.218
atomic mag. moment =   3.70086
N of occupied +U levels =   36.199248
 --- exit write_ns ---

     negative rho (up, down):  1.216E-01 1.216E-01
 --- in v_hubbard ---
Hubbard energy    0.6393
 -------

     total cpu time spent up to now is     1765.4 secs

     total energy              =   -3194.15466916 Ry
     estimated scf accuracy    <       0.00002176 Ry

     total magnetization       =    -0.00 Bohr mag/cell
     absolute magnetization    =    27.65 Bohr mag/cell

     iteration #  9     ecut=    30.00 Ry     beta= 0.40
     CG style diagonalization
     ethr =  7.40E-09,  avg # of iterations =  3.0
 --- enter write_ns ---
 LDA+U parameters:
U( 3)     =  0.50000000
alpha( 3) =  0.20000000
U( 4)     =  0.50000000
alpha( 4) =  0.20000000
atom    1   Tr[ns(na)] (up, down, total) =   1.09387  4.90260  5.99647
   spin  1
    eigenvalues: 
  0.154  0.162  0.162  0.308  0.308
    eigenvectors:
  1.000  0.000  0.000  0.000  0.000
  0.000  0.073  0.318  0.023  0.587
  0.000  0.318  0.073  0.587  0.023
  0.000  0.166  0.443  0.202  0.188
  0.000  0.443  0.166  0.188  0.202
    occupations:
  0.154 -0.000 -0.000 -0.000 -0.000
 -0.000  0.251 -0.000  0.038  0.059
 -0.000 -0.000  0.251  0.059 -0.038
 -0.000  0.038  0.059  0.219  0.000
 -0.000  0.059 -0.038  0.000  0.219
   spin  2
    eigenvalues: 
  0.979  0.979  0.981  0.982  0.982
    eigenvectors:
  0.000  0.000  1.000  0.000  0.000
  0.029  0.385  0.000  0.057  0.529
  0.385  0.029  0.000  0.529  0.057
  0.215  0.371  0.000  0.133  0.281
  0.371  0.215  0.000  0.281  0.133
    occupations:
  0.981 -0.000 -0.000 -0.000 -0.000
 -0.000  0.981 -0.000 -0.001 -0.001
 -0.000 -0.000  0.981 -0.001  0.001
 -0.000 -0.001 -0.001  0.980  0.000
 -0.000 -0.001  0.001  0.000  0.980
atomic mag. moment =  -3.80874
atom    2   Tr[ns(na)] (up, down, total) =   1.17146  4.87090  6.04236
   spin  1
    eigenvalues: 
  0.161  0.170  0.170  0.335  0.335
    eigenvectors:
  1.000  0.000  0.000  0.000  0.000
  0.000  0.234  0.057  0.298  0.411
  0.000  0.057  0.234  0.411  0.298
  0.000  0.092  0.617  0.000  0.291
  0.000  0.617  0.092  0.291  0.000
    occupations:
  0.161 -0.000 -0.000 -0.000 -0.000
 -0.000  0.287 -0.000 -0.055  0.050
 -0.000 -0.000  0.287  0.050  0.055
 -0.000 -0.055  0.050  0.218  0.000
 -0.000  0.050  0.055  0.000  0.218
   spin  2
    eigenvalues: 
  0.965  0.965  0.980  0.981  0.981
    eigenvectors:
  0.000  0.000  1.000  0.000  0.000
  0.407  0.269  0.000  0.272  0.051
  0.269  0.407  0.000  0.051  0.272
  0.000  0.323  0.000  0.051  0.626
  0.323  0.000  0.000  0.626  0.051
    occupations:
  0.980 -0.000 -0.000 -0.000 -0.000
 -0.000  0.970 -0.000  0.005 -0.006
 -0.000 -0.000  0.970 -0.006 -0.005
 -0.000  0.005 -0.006  0.976  0.000
 -0.000 -0.006 -0.005  0.000  0.976
atomic mag. moment =  -3.69944
atom    3   Tr[ns(na)] (up, down, total) =   1.18621  4.87474  6.06095
   spin  1
    eigenvalues: 
  0.176  0.176  0.187  0.323  0.323
    eigenvectors:
  0.000  0.000  1.000  0.000  0.000
  0.382  0.174  0.000  0.352  0.092
  0.174  0.382  0.000  0.092  0.352
  0.028  0.416  0.000  0.076  0.480
  0.416  0.028  0.000  0.480  0.076
    occupations:
  0.187 -0.000 -0.000 -0.000 -0.000
 -0.000  0.242 -0.000 -0.055  0.048
 -0.000 -0.000  0.242  0.048  0.055
 -0.000 -0.055  0.048  0.258  0.000
 -0.000  0.048  0.055  0.000  0.258
   spin  2
    eigenvalues: 
  0.968  0.968  0.979  0.980  0.980
    eigenvectors:
  0.000  0.000  1.000  0.000  0.000
  0.424  0.106  0.000  0.330  0.140
  0.106  0.424  0.000  0.140  0.330
  0.045  0.424  0.000  0.022  0.509
  0.424  0.045  0.000  0.509  0.022
    occupations:
  0.979 -0.000 -0.000 -0.000 -0.000
 -0.000  0.974 -0.000  0.004 -0.004
 -0.000 -0.000  0.974 -0.004 -0.004
 -0.000  0.004 -0.004  0.974  0.000
[...]

     total cpu time spent up to now is     2116.5 secs

     End of self-consistent calculation

 ------ SPIN UP ------------


          k = 0.0000 0.0000 0.0000 (  6723 PWs)   bands (ev):

   -78.8208 -78.6016 -78.4897 -73.7516 -73.6912 -73.6071 -44.8180 -44.7566
   -44.7565 -44.5639 -44.5639 -44.5582 -44.5535 -44.4081 -44.4081 -39.8803
   -39.8348 -39.8348 -39.8112 -39.7792 -39.7792 -39.7559 -39.6903 -39.6903
   -10.6806 -10.6806 -10.6564 -10.6564 -10.6417 -10.6292 -10.6140 -10.6140
   -10.5977 -10.5977 -10.5909 -10.5909 -10.5712 -10.5712 -10.5460 -10.5365
   -10.5256 -10.5256 -10.5161 -10.5161 -10.4977 -10.4977 -10.4922 -10.4857
   -10.4857 -10.4824 -10.4605 -10.4605 -10.4499 -10.4499  -7.3721  -6.9838
    -6.8517  -6.0318  -5.9553  -5.5794  -5.5793  -5.4838  -5.4838  -5.4139
    -5.4139  -5.3947  -5.2936  -5.2935  -5.0917  -5.0917  -4.9373  -4.9372
     1.6111   1.7258   1.7556   2.4443   2.5667   3.3440   5.3795   5.3795
     5.4755   5.8894   5.8895   5.9986   6.0098   6.0099   6.2195   6.2311
     6.2311   6.4825   6.4828   6.4828   6.5296   6.6402   6.6403   6.8409
     6.8410   6.9618   7.1064   7.2266   7.2266   7.5096   7.5096   7.6344
     7.8063   8.1436   8.1437   8.2476   8.4532   8.4532   8.5730   8.5730
     8.7901   8.9710   9.0486   9.0486   9.1664   9.1665   9.3296   9.3520
     9.3520   9.4273   9.4912   9.4913   9.6730   9.6730  10.0296  10.0296
    10.0790  10.0791  10.1017  10.1444  10.1444  10.5158  10.5158  10.6803
    10.8702  10.9394  10.9394  11.0225  11.1803  11.1974  11.3009  11.7536
    11.7536  12.5321  12.5322  13.0666  13.0666  13.2421  13.3001  13.3285
    13.3285  13.3519  13.4926  13.4926  14.2537  14.2537  14.9841  14.9841
    15.5355  15.6349  15.6349  15.7516  15.8116  15.9406  17.1656  17.1657
    17.1919  17.1920  17.2878  17.2878  17.5708  17.6408  17.7083  17.7083
    17.7640  17.7640  18.1817  18.1818  19.5347  20.5837  21.0833  21.2267
    21.5373  21.5373  22.0485  22.1878  22.5771  22.5771  22.6557  22.6557
    22.7805  22.7806  24.0019  24.0020  24.0686  24.0686  24.1487  24.3801

     occupation numbers 
     1.0000   1.0000   1.0000   1.0000   1.0000   1.0000   1.0000   1.0000
     1.0000   1.0000   1.0000   1.0000   1.0000   1.0000   1.0000   1.0000
     1.0000   1.0000   1.0000   1.0000   1.0000   1.0000   1.0000   1.0000
     1.0000   1.0000   1.0000   1.0000   1.0000   1.0000   1.0000   1.0000
     1.0000   1.0000   1.0000   1.0000   1.0000   1.0000   1.0000   1.0000
     1.0000   1.0000   1.0000   1.0000   1.0000   1.0000   1.0000   1.0000
     1.0000   1.0000   1.0000   1.0000   1.0000   1.0000   1.0000   1.0000
     1.0000   1.0000   1.0000   1.0000   1.0000   1.0000   1.0000   1.0000
     1.0000   1.0000   1.0000   1.0000   1.0000   1.0000   1.0000   1.0000
     1.0000   1.0000   1.0000   1.0000   1.0000   1.0000   1.0000   1.0000
     1.0000   1.0000   1.0000   1.0000   1.0000   1.0000   1.0000   1.0000
     1.0000   1.0000   1.0000   1.0000   1.0000   1.0000   1.0000   1.0000
     1.0000   1.0000   1.0000   1.0000   1.0000   1.0000   1.0000   1.0000
     1.0000   1.0000   1.0000   1.0000   1.0000   1.0000   1.0000   1.0000
     1.0000   1.0000   1.0000   1.0000   1.0000   1.0000   1.0000   1.0000
     1.0000   1.0000   1.0000   1.0000   1.0000   1.0000   1.0000   1.0000
     1.0000   1.0000   1.0000   1.0000   1.0000   1.0000   1.0000   1.0000
     1.0000   1.0000   1.0000   1.0000   1.0000   1.0000   1.0000   1.0000
     1.0000   0.9470   0.9468  -0.0000  -0.0000  -0.0000  -0.0000  -0.0000
    -0.0000  -0.0000  -0.0000  -0.0000  -0.0000  -0.0000  -0.0000  -0.0000
    -0.0000  -0.0000  -0.0000  -0.0000  -0.0000  -0.0000  -0.0000  -0.0000
    -0.0000  -0.0000  -0.0000  -0.0000  -0.0000  -0.0000  -0.0000  -0.0000
    -0.0000  -0.0000  -0.0000  -0.0000  -0.0000  -0.0000  -0.0000  -0.0000
    -0.0000  -0.0000  -0.0000  -0.0000  -0.0000  -0.0000  -0.0000  -0.0000
    -0.0000  -0.0000  -0.0000  -0.0000  -0.0000  -0.0000  -0.0000  -0.0000

          k = 0.0000-0.5774 0.0000 (  6794 PWs)   bands (ev):

   -78.8211 -78.6018 -78.4899 -73.7518 -73.6914 -73.6073 -44.8192 -44.7591
   -44.7582 -44.5664 -44.5655 -44.5594 -44.5546 -44.4106 -44.4097 -39.8814
   -39.8370 -39.8362 -39.8122 -39.7814 -39.7806 -39.7569 -39.6925 -39.6917
   -10.6769 -10.6569 -10.6435 -10.6396 -10.6334 -10.6278 -10.6127 -10.5951
   -10.5906 -10.5854 -10.5789 -10.5763 -10.5744 -10.5702 -10.5437 -10.5356
   -10.5300 -10.5257 -10.5184 -10.5176 -10.5144 -10.5066 -10.5014 -10.4899
   -10.4882 -10.4793 -10.4762 -10.4674 -10.4636 -10.4529  -6.6605  -6.6309
    -6.4679  -6.2648  -6.2205  -5.8736  -5.7927  -5.7289  -5.6141  -5.5447
    -5.4854  -5.4635  -5.3911  -5.3239  -5.1995  -5.1391  -5.0376  -4.9579
     1.5421   1.7990   1.8392   2.0940   2.1685   2.3415   5.5173   5.7696
     5.7974   5.9053   6.1556   6.1758   6.3108   6.3475   6.3658   6.5340
     6.5634   6.6332   6.7195   6.7783   7.0218   7.0590   7.1122   7.2099
     7.3370   7.4198   7.5341   7.5474   7.6546   7.7714   7.8153   7.9299
     8.0001   8.0637   8.1870   8.3030   8.3310   8.3695   8.4938   8.5594
     8.6369   8.7405   8.8555   8.9034   9.0017   9.0492   9.1208   9.1899
     9.2677   9.3270   9.4056   9.4832   9.6411   9.7540   9.8041   9.8465
     9.8820   9.9419   9.9749  10.0883  10.1453  10.1991  10.2712  10.5161
    10.6158  10.7899  10.9985  11.0675  11.1030  11.2937  11.4957  11.7125
    11.7695  11.8253  12.4557  13.0443  13.1563  13.2439  13.3135  13.3428
    13.4300  13.4624  13.6257  13.7265  14.2767  14.3099  14.5314  14.7872
    14.8358  15.2196  15.4071  15.7098  15.7798  15.8999  15.9823  16.0409
    16.1432  16.1905  16.2745  17.0118  17.1682  17.2922  17.3606  17.4334
    17.5175  17.5765  17.6572  17.7309  21.3209  21.5240  21.8321  22.2523
    22.4325  22.5280  22.9042  22.9765  23.0457  23.2205  23.3271  23.3615
    23.4340  23.4686  23.9418  23.9700  24.1675  24.1977  24.3321  24.4612

     occupation numbers 
     1.0000   1.0000   1.0000   1.0000   1.0000   1.0000   1.0000   1.0000
     1.0000   1.0000   1.0000   1.0000   1.0000   1.0000   1.0000   1.0000
     1.0000   1.0000   1.0000   1.0000   1.0000   1.0000   1.0000   1.0000
     1.0000   1.0000   1.0000   1.0000   1.0000   1.0000   1.0000   1.0000
     1.0000   1.0000   1.0000   1.0000   1.0000   1.0000   1.0000   1.0000
     1.0000   1.0000   1.0000   1.0000   1.0000   1.0000   1.0000   1.0000
     1.0000   1.0000   1.0000   1.0000   1.0000   1.0000   1.0000   1.0000
     1.0000   1.0000   1.0000   1.0000   1.0000   1.0000   1.0000   1.0000
     1.0000   1.0000   1.0000   1.0000   1.0000   1.0000   1.0000   1.0000
     1.0000   1.0000   1.0000   1.0000   1.0000   1.0000   1.0000   1.0000
     1.0000   1.0000   1.0000   1.0000   1.0000   1.0000   1.0000   1.0000
     1.0000   1.0000   1.0000   1.0000   1.0000   1.0000   1.0000   1.0000
     1.0000   1.0000   1.0000   1.0000   1.0000   1.0000   1.0000   1.0000
     1.0000   1.0000   1.0000   1.0000   1.0000   1.0000   1.0000   1.0000
     1.0000   1.0000   1.0000   1.0000   1.0000   1.0000   1.0000   1.0000
     1.0000   1.0000   1.0000   1.0000   1.0000   1.0000   1.0000   1.0000
     1.0000   1.0000   1.0000   1.0000   1.0000   1.0000   1.0000   1.0000
     1.0000   1.0000   1.0000   1.0000   1.0000   1.0000   1.0000   1.0000
     1.0000   1.0000   1.0355  -0.0001  -0.0000  -0.0000  -0.0000  -0.0000
    -0.0000  -0.0000  -0.0000  -0.0000  -0.0000  -0.0000  -0.0000  -0.0000
    -0.0000  -0.0000  -0.0000  -0.0000  -0.0000  -0.0000  -0.0000  -0.0000
    -0.0000  -0.0000  -0.0000  -0.0000  -0.0000  -0.0000  -0.0000  -0.0000
    -0.0000  -0.0000  -0.0000  -0.0000  -0.0000  -0.0000  -0.0000  -0.0000
    -0.0000  -0.0000  -0.0000  -0.0000  -0.0000  -0.0000  -0.0000  -0.0000
    -0.0000  -0.0000  -0.0000  -0.0000  -0.0000  -0.0000  -0.0000  -0.0000

 ------ SPIN DOWN ----------


          k = 0.0000 0.0000 0.0000 (  6723 PWs)   bands (ev):

   -78.8211 -78.6021 -78.4889 -73.7518 -73.6909 -73.6078 -44.8186 -44.7568
   -44.7568 -44.5644 -44.5644 -44.5588 -44.5527 -44.4074 -44.4073 -39.8804
   -39.8349 -39.8349 -39.8109 -39.7789 -39.7789 -39.7567 -39.6910 -39.6910
   -10.6805 -10.6805 -10.6566 -10.6566 -10.6413 -10.6296 -10.6140 -10.6139
   -10.5976 -10.5976 -10.5913 -10.5913 -10.5709 -10.5709 -10.5466 -10.5359
   -10.5257 -10.5257 -10.5161 -10.5161 -10.4981 -10.4981 -10.4928 -10.4853
   -10.4853 -10.4818 -10.4610 -10.4610 -10.4494 -10.4494  -7.3723  -6.9839
    -6.8516  -6.0316  -5.9555  -5.5791  -5.5789  -5.4842  -5.4841  -5.4142
    -5.4142  -5.3947  -5.2944  -5.2942  -5.0914  -5.0913  -4.9366  -4.9366
     1.6110   1.7257   1.7557   2.4443   2.5666   3.3441   5.3791   5.3791
     5.4752   5.8892   5.8893   5.9985   6.0097   6.0097   6.2195   6.2311
     6.2311   6.4822   6.4827   6.4828   6.5292   6.6395   6.6396   6.8415
     6.8416   6.9618   7.1067   7.2270   7.2270   7.5094   7.5094   7.6344
     7.8067   8.1437   8.1438   8.2475   8.4532   8.4532   8.5729   8.5729
     8.7902   8.9706   9.0484   9.0484   9.1665   9.1665   9.3295   9.3521
     9.3522   9.4272   9.4911   9.4911   9.6732   9.6733  10.0298  10.0298
    10.0792  10.0793  10.1019  10.1442  10.1442  10.5161  10.5161  10.6810
    10.8701  10.9395  10.9396  11.0226  11.1805  11.1971  11.3006  11.7539
    11.7540  12.5321  12.5321  13.0665  13.0665  13.2419  13.2998  13.3284
    13.3284  13.3520  13.4921  13.4921  14.2534  14.2534  14.9836  14.9837
    15.5355  15.6347  15.6347  15.7509  15.8120  15.9405  17.1656  17.1656
    17.1923  17.1924  17.2875  17.2875  17.5708  17.6408  17.7083  17.7083
    17.7638  17.7639  18.1817  18.1818  19.5353  20.5835  21.0837  21.2262
    21.5374  21.5374  22.0483  22.1876  22.5772  22.5772  22.6558  22.6558
    22.7804  22.7805  24.0018  24.0019  24.0687  24.0687  24.1486  24.3811

     occupation numbers 
     1.0000   1.0000   1.0000   1.0000   1.0000   1.0000   1.0000   1.0000
     1.0000   1.0000   1.0000   1.0000   1.0000   1.0000   1.0000   1.0000
     1.0000   1.0000   1.0000   1.0000   1.0000   1.0000   1.0000   1.0000
     1.0000   1.0000   1.0000   1.0000   1.0000   1.0000   1.0000   1.0000
     1.0000   1.0000   1.0000   1.0000   1.0000   1.0000   1.0000   1.0000
     1.0000   1.0000   1.0000   1.0000   1.0000   1.0000   1.0000   1.0000
     1.0000   1.0000   1.0000   1.0000   1.0000   1.0000   1.0000   1.0000
     1.0000   1.0000   1.0000   1.0000   1.0000   1.0000   1.0000   1.0000
     1.0000   1.0000   1.0000   1.0000   1.0000   1.0000   1.0000   1.0000
     1.0000   1.0000   1.0000   1.0000   1.0000   1.0000   1.0000   1.0000
     1.0000   1.0000   1.0000   1.0000   1.0000   1.0000   1.0000   1.0000
     1.0000   1.0000   1.0000   1.0000   1.0000   1.0000   1.0000   1.0000
     1.0000   1.0000   1.0000   1.0000   1.0000   1.0000   1.0000   1.0000
     1.0000   1.0000   1.0000   1.0000   1.0000   1.0000   1.0000   1.0000
     1.0000   1.0000   1.0000   1.0000   1.0000   1.0000   1.0000   1.0000
     1.0000   1.0000   1.0000   1.0000   1.0000   1.0000   1.0000   1.0000
     1.0000   1.0000   1.0000   1.0000   1.0000   1.0000   1.0000   1.0000
     1.0000   1.0000   1.0000   1.0000   1.0000   1.0000   1.0000   1.0000
     1.0000   0.9470   0.9469  -0.0000  -0.0000  -0.0000  -0.0000  -0.0000
    -0.0000  -0.0000  -0.0000  -0.0000  -0.0000  -0.0000  -0.0000  -0.0000
    -0.0000  -0.0000  -0.0000  -0.0000  -0.0000  -0.0000  -0.0000  -0.0000
    -0.0000  -0.0000  -0.0000  -0.0000  -0.0000  -0.0000  -0.0000  -0.0000
    -0.0000  -0.0000  -0.0000  -0.0000  -0.0000  -0.0000  -0.0000  -0.0000
    -0.0000  -0.0000  -0.0000  -0.0000  -0.0000  -0.0000  -0.0000  -0.0000
    -0.0000  -0.0000  -0.0000  -0.0000  -0.0000  -0.0000  -0.0000  -0.0000

          k = 0.0000-0.5774 0.0000 (  6794 PWs)   bands (ev):

   -78.8214 -78.6024 -78.4892 -73.7520 -73.6911 -73.6081 -44.8197 -44.7593
   -44.7584 -44.5670 -44.5661 -44.5599 -44.5538 -44.4099 -44.4090 -39.8814
   -39.8372 -39.8363 -39.8119 -39.7811 -39.7803 -39.7577 -39.6933 -39.6925
   -10.6767 -10.6571 -10.6431 -10.6393 -10.6339 -10.6282 -10.6127 -10.5949
   -10.5906 -10.5857 -10.5793 -10.5765 -10.5739 -10.5700 -10.5444 -10.5348
   -10.5302 -10.5257 -10.5186 -10.5172 -10.5150 -10.5061 -10.5017 -10.4897
   -10.4886 -10.4787 -10.4769 -10.4668 -10.4640 -10.4524  -6.6606  -6.6312
    -6.4679  -6.2649  -6.2202  -5.8736  -5.7926  -5.7289  -5.6143  -5.5447
    -5.4854  -5.4637  -5.3917  -5.3245  -5.1992  -5.1390  -5.0372  -4.9573
     1.5420   1.7989   1.8392   2.0941   2.1682   2.3417   5.5168   5.7689
     5.7974   5.9048   6.1554   6.1754   6.3108   6.3479   6.3659   6.5340
     6.5628   6.6334   6.7193   6.7780   7.0217   7.0590   7.1123   7.2099
     7.3374   7.4197   7.5340   7.5475   7.6546   7.7715   7.8155   7.9300
     7.9999   8.0638   8.1872   8.3026   8.3310   8.3697   8.4941   8.5597
     8.6370   8.7407   8.8551   8.9033   9.0018   9.0493   9.1208   9.1899
     9.2676   9.3270   9.4054   9.4833   9.6409   9.7538   9.8041   9.8464
     9.8820   9.9420   9.9749  10.0886  10.1455  10.1997  10.2714  10.5162
    10.6160  10.7902  10.9985  11.0673  11.1029  11.2941  11.4955  11.7127
    11.7695  11.8256  12.4556  13.0441  13.1561  13.2437  13.3134  13.3428
    13.4297  13.4622  13.6254  13.7260  14.2766  14.3097  14.5312  14.7868
    14.8355  15.2193  15.4070  15.7098  15.7801  15.8997  15.9821  16.0406
    16.1434  16.1902  16.2746  17.0118  17.1681  17.2923  17.3606  17.4335
    17.5175  17.5759  17.6572  17.7314  21.3217  21.5247  21.8324  22.2519
    22.4321  22.5274  22.9039  22.9765  23.0456  23.2209  23.3272  23.3613
    23.4338  23.4685  23.9420  23.9702  24.1677  24.1975  24.3320  24.4616

     occupation numbers 
     1.0000   1.0000   1.0000   1.0000   1.0000   1.0000   1.0000   1.0000
     1.0000   1.0000   1.0000   1.0000   1.0000   1.0000   1.0000   1.0000
     1.0000   1.0000   1.0000   1.0000   1.0000   1.0000   1.0000   1.0000
     1.0000   1.0000   1.0000   1.0000   1.0000   1.0000   1.0000   1.0000
     1.0000   1.0000   1.0000   1.0000   1.0000   1.0000   1.0000   1.0000
     1.0000   1.0000   1.0000   1.0000   1.0000   1.0000   1.0000   1.0000
     1.0000   1.0000   1.0000   1.0000   1.0000   1.0000   1.0000   1.0000
     1.0000   1.0000   1.0000   1.0000   1.0000   1.0000   1.0000   1.0000
     1.0000   1.0000   1.0000   1.0000   1.0000   1.0000   1.0000   1.0000
     1.0000   1.0000   1.0000   1.0000   1.0000   1.0000   1.0000   1.0000
     1.0000   1.0000   1.0000   1.0000   1.0000   1.0000   1.0000   1.0000
     1.0000   1.0000   1.0000   1.0000   1.0000   1.0000   1.0000   1.0000
     1.0000   1.0000   1.0000   1.0000   1.0000   1.0000   1.0000   1.0000
     1.0000   1.0000   1.0000   1.0000   1.0000   1.0000   1.0000   1.0000
     1.0000   1.0000   1.0000   1.0000   1.0000   1.0000   1.0000   1.0000
     1.0000   1.0000   1.0000   1.0000   1.0000   1.0000   1.0000   1.0000
     1.0000   1.0000   1.0000   1.0000   1.0000   1.0000   1.0000   1.0000
     1.0000   1.0000   1.0000   1.0000   1.0000   1.0000   1.0000   1.0000
     1.0000   1.0000   1.0355  -0.0001  -0.0000  -0.0000  -0.0000  -0.0000
    -0.0000  -0.0000  -0.0000  -0.0000  -0.0000  -0.0000  -0.0000  -0.0000
    -0.0000  -0.0000  -0.0000  -0.0000  -0.0000  -0.0000  -0.0000  -0.0000
    -0.0000  -0.0000  -0.0000  -0.0000  -0.0000  -0.0000  -0.0000  -0.0000
    -0.0000  -0.0000  -0.0000  -0.0000  -0.0000  -0.0000  -0.0000  -0.0000
    -0.0000  -0.0000  -0.0000  -0.0000  -0.0000  -0.0000  -0.0000  -0.0000
    -0.0000  -0.0000  -0.0000  -0.0000  -0.0000  -0.0000  -0.0000  -0.0000

     the Fermi energy is    12.6225 ev

!    total energy              =   -3194.15467245 Ry
     estimated scf accuracy    <       0.00000009 Ry
     smearing contrib. (-TS)   =       0.00084176 Ry
     internal energy E=F+TS    =   -3194.15551421 Ry

     The total energy is F=E-TS. E is the sum of the following terms:
     one-electron contribution =   -1265.38850215 Ry
     hartree contribution      =     824.66240663 Ry
     xc contribution           =    -695.58725197 Ry
     ewald contribution        =   -2058.48132916 Ry
     Hubbard energy            =       0.63916244 Ry

     total magnetization       =    -0.00 Bohr mag/cell
     absolute magnetization    =    27.65 Bohr mag/cell

     convergence has been achieved in  12 iterations

     Writing output data file /home/aldair1809/Documentos/QE/4BFO/hubbard_pbe_mp/lr_0.2/bifeo3-Uhubbard.save/

     init_run     :     33.97s CPU     34.54s WALL (       1 calls)
     electrons    :   2040.81s CPU   2081.10s WALL (       1 calls)

     Called by init_run:
     wfcinit      :     31.91s CPU     32.17s WALL (       1 calls)
     wfcinit:atom :      0.03s CPU      0.03s WALL (       4 calls)
     wfcinit:wfcr :     22.58s CPU     22.79s WALL (       4 calls)
     potinit      :      0.13s CPU      0.17s WALL (       1 calls)
     hinit0       :      0.98s CPU      1.00s WALL (       1 calls)

     Called by electrons:
     c_bands      :   1945.36s CPU   1979.26s WALL (      12 calls)
     sum_band     :     85.14s CPU     89.20s WALL (      12 calls)
     v_of_rho     :      1.72s CPU      1.80s WALL (      13 calls)
     v_h          :      0.05s CPU      0.05s WALL (      13 calls)
     v_xc         :      1.67s CPU      1.74s WALL (      13 calls)
     newd         :      8.98s CPU     11.38s WALL (      13 calls)
     mix_rho      :      0.35s CPU      0.36s WALL (      12 calls)

     Called by c_bands:
     init_us_2    :      1.17s CPU      1.20s WALL (     104 calls)
     ccgdiagg     :   1641.79s CPU   1671.84s WALL (      59 calls)
     wfcrot       :    325.14s CPU    329.17s WALL (      59 calls)

     Called by sum_band:
     sum_band:wei :      0.03s CPU      0.03s WALL (      12 calls)
     sum_band:loo :     67.87s CPU     69.61s WALL (      12 calls)
     sum_band:buf :      0.19s CPU      0.19s WALL (      48 calls)
     sum_band:ini :      0.54s CPU      0.54s WALL (      48 calls)
     sum_band:cal :     50.08s CPU     50.53s WALL (      48 calls)
     sum_band:bec :      0.32s CPU      0.32s WALL (      48 calls)
     addusdens    :     13.21s CPU     15.47s WALL (      12 calls)
     addusd:skk   :      0.05s CPU      0.06s WALL (      48 calls)
     addusd:dgemm :      6.84s CPU      8.69s WALL (      96 calls)
     addusd:qvan2 :      6.15s CPU      6.20s WALL (      96 calls)

     Called by *cgdiagg:
     h_psi        :    878.08s CPU    899.57s WALL (   45729 calls)
     s_psi        :    580.90s CPU    585.93s WALL (   91403 calls)

     Called by h_psi:
     h_psi:calbec :    305.06s CPU    311.31s WALL (   45729 calls)
     vloc_psi     :    194.23s CPU    205.66s WALL (   45729 calls)
     add_vuspsi   :    320.85s CPU    323.46s WALL (   45729 calls)
     vhpsi        :     55.96s CPU     57.35s WALL (   45729 calls)
     hs_1psi      :    957.76s CPU    978.18s WALL (   45670 calls)
     s_1psi       :    499.33s CPU    505.49s WALL (   45670 calls)

     General routines
     calbec       :    639.09s CPU    650.89s WALL (  137228 calls)
     fft          :      0.75s CPU      0.81s WALL (     271 calls)
     ffts         :      0.07s CPU      0.08s WALL (      24 calls)
     fftw         :    179.72s CPU    191.45s WALL (  124572 calls)
     davcio       :      0.00s CPU      0.00s WALL (       4 calls)

     Parallel routines
     fft_scatt_xy :     24.72s CPU     26.70s WALL (  124867 calls)
     fft_scatt_yz :     32.39s CPU     36.15s WALL (  124867 calls)

     Hubbard U routines
     new_ns       :      3.41s CPU      3.44s WALL (      12 calls)
     new_ns       :      3.41s CPU      3.44s WALL (      12 calls)
     vhpsi        :     55.96s CPU     57.35s WALL (   45729 calls)

     PWSCF        :  34m35.78s CPU  35m17.03s WALL


   This run was terminated on:  19:18:25  26Oct2024            

=------------------------------------------------------------------------------=
   JOB DONE.
=------------------------------------------------------------------------------=
