
     Program PWSCF v.6.7MaX starts on 26Oct2024 at 22:18:26 

     This program is part of the open-source Quantum ESPRESSO suite
     for quantum simulation of materials; please cite
         "P. Giannozzi et al., J. Phys.:Condens. Matter 21 395502 (2009);
         "P. Giannozzi et al., J. Phys.:Condens. Matter 29 465901 (2017);
          URL http://www.quantum-espresso.org", 
     in publications or presentations arising from this work. More details at
     http://www.quantum-espresso.org/quote

     Parallel version (MPI), running on     4 processors

     MPI processes distributed on     1 nodes
     R & G space division:  proc/nbgrp/npool/nimage =       4
     Waiting for input...
     Reading input from standard input

     Current dimensions of program PWSCF are:
     Max number of different atomic species (ntypx) = 10
     Max number of k-points (npk) =  40000
     Max angular momentum in pseudopotentials (lmaxx) =  3

     Subspace diagonalization in iterative solution of the eigenvalue problem:
     one sub-group per band group will be used
     scalapack distributed-memory algorithm (size of sub-group:  2*  2 procs)


     Parallelization info
     --------------------
     sticks:   dense  smooth     PW     G-vecs:    dense   smooth      PW
     Min         261     261     74                17069    17069    2544
     Max         262     262     76                17072    17072    2546
     Sum        1045    1045    301                68281    68281   10179



     bravais-lattice index     =            4
     lattice parameter (alat)  =      10.4531  a.u.
     unit-cell volume          =    2440.6662 (a.u.)^3
     number of atoms/cell      =           30
     number of atomic types    =            4
     number of electrons       =       294.00
     number of Kohn-Sham states=          200
     kinetic-energy cutoff     =      35.0000  Ry
     charge density cutoff     =     140.0000  Ry
     scf convergence threshold =      1.0E-07
     mixing beta               =       0.4000
     number of iterations used =            8  plain     mixing
     Exchange-correlation=  SLA  PW   PBX  PBC
                           (   1   4   3   4   0   0   0)

     celldm(1)=  10.453102  celldm(2)=   0.000000  celldm(3)=   2.467415
     celldm(4)=   0.000000  celldm(5)=   0.000000  celldm(6)=   0.000000

     crystal axes: (cart. coord. in units of alat)
               a(1) = (   1.000000   0.000000   0.000000 )  
               a(2) = (  -0.500000   0.866025   0.000000 )  
               a(3) = (   0.000000   0.000000   2.467415 )  

     reciprocal axes: (cart. coord. in units 2 pi/alat)
               b(1) = (  1.000000  0.577350 -0.000000 )  
               b(2) = (  0.000000  1.154701  0.000000 )  
               b(3) = (  0.000000 -0.000000  0.405282 )  


     PseudoPot. # 1 for O  read from file:
     /home/aldair1809/Programas/QE/q-e-qe-7.3/pseudo/o_pbe_v1.2.uspp.F.UPF
     MD5 check sum: 734c27235a0248c51dbae37a1fbe46ec
     Pseudo is Ultrasoft + core correction, Zval =  6.0
     Generated by new atomic code, or converted to UPF format
     Using radial grid of  737 points,  5 beta functions with: 
                l(1) =   0
                l(2) =   0
                l(3) =   1
                l(4) =   1
                l(5) =   2
     Q(r) pseudized with  8 coefficients,  rinner =    0.900   0.900   0.900
                                                       0.900   0.900

     PseudoPot. # 2 for Bi read from file:
     /home/aldair1809/Programas/QE/q-e-qe-7.3/pseudo/bi_pbe_v1.uspp.F.UPF
     MD5 check sum: cceb9f28ec65b6d7ff33140f5b0b1758
     Pseudo is Ultrasoft + core correction, Zval = 15.0
     Generated by new atomic code, or converted to UPF format
     Using radial grid of  899 points,  6 beta functions with: 
                l(1) =   0
                l(2) =   0
                l(3) =   1
                l(4) =   1
                l(5) =   2
                l(6) =   2
     Q(r) pseudized with  6 coefficients,  rinner =    1.000   1.000   1.000
                                                       1.000   1.000

     PseudoPot. # 3 for Fe read from file:
     /home/aldair1809/Programas/QE/q-e-qe-7.3/pseudo/fe_pbe_v1.5.uspp.F.UPF
     MD5 check sum: a130daea23fe5165f5d574ae7f82ed95
     Pseudo is Ultrasoft + core correction, Zval = 16.0
     Generated by new atomic code, or converted to UPF format
     Using radial grid of  861 points,  6 beta functions with: 
                l(1) =   0
                l(2) =   0
                l(3) =   1
                l(4) =   1
                l(5) =   2
                l(6) =   2
     Q(r) pseudized with  8 coefficients,  rinner =    1.000   1.000   1.000
                                                       1.000   1.000

     PseudoPot. # 4 for Fe read from file:
     /home/aldair1809/Programas/QE/q-e-qe-7.3/pseudo/fe_pbe_v1.5.uspp.F.UPF
     MD5 check sum: a130daea23fe5165f5d574ae7f82ed95
     Pseudo is Ultrasoft + core correction, Zval = 16.0
     Generated by new atomic code, or converted to UPF format
     Using radial grid of  861 points,  6 beta functions with: 
                l(1) =   0
                l(2) =   0
                l(3) =   1
                l(4) =   1
                l(5) =   2
                l(6) =   2
     Q(r) pseudized with  8 coefficients,  rinner =    1.000   1.000   1.000
                                                       1.000   1.000

     atomic species   valence    mass     pseudopotential
        O              6.00    15.99940     O ( 1.00)
        Bi            15.00   208.98040     Bi( 1.00)
        Fe1           16.00    55.84500     Fe( 1.00)
        Fe2           16.00    55.84500     Fe( 1.00)

     Starting magnetic structure 
     atomic species   magnetization
        O            0.000
        Bi           0.000
        Fe1         -0.800
        Fe2          0.800


     Simplified LDA+U calculation (l_max = 2) with parameters (eV):
     atomic species    L          U    alpha       J0     beta
        Fe1            2     0.0000   0.0200   0.0000   0.0000
        Fe2            2     0.0000   0.0200   0.0000   0.0000



      3 Sym. Ops. (no inversion) found


                                    s                        frac. trans.

      isym =  1     identity                                     

 cryst.   s( 1) = (     1          0          0      )
                  (     0          1          0      )
                  (     0          0          1      )

 cart.    s( 1) = (  1.0000000  0.0000000  0.0000000 )
                  (  0.0000000  1.0000000  0.0000000 )
                  (  0.0000000  0.0000000  1.0000000 )


      isym =  2     120 deg rotation - cryst. axis [0,0,1]       

 cryst.   s( 2) = (     0          1          0      )
                  (    -1         -1          0      )
                  (     0          0          1      )

 cart.    s( 2) = ( -0.5000000 -0.8660254  0.0000000 )
                  (  0.8660254 -0.5000000  0.0000000 )
                  (  0.0000000  0.0000000  1.0000000 )


      isym =  3     120 deg rotation - cryst. axis [0,0,-1]      

 cryst.   s( 3) = (    -1         -1          0      )
                  (     1          0          0      )
                  (     0          0          1      )

 cart.    s( 3) = ( -0.5000000  0.8660254  0.0000000 )
                  ( -0.8660254 -0.5000000  0.0000000 )
                  (  0.0000000  0.0000000  1.0000000 )


     point group C_3 (3)    
     there are  3 classes
     the character table:

       E     C3    C3^2 
A      1.00  1.00  1.00
E      1.00 -0.50 -0.50
E*     1.00 -0.50 -0.50
     imaginary part
A      0.00  0.00  0.00
E      0.00  0.87 -0.87
E*     0.00 -0.87  0.87

     the symmetry operations in each class and the name of the first element:

     E        1
          identity                                               
     C3       2
          120 deg rotation - cryst. axis [0,0,1]                 
     C3^2     3
          120 deg rotation - cryst. axis [0,0,-1]                

   Cartesian axes

     site n.     atom                  positions (alat units)
         1           Fe1 tau(   1) = (   0.0000000   0.0000000   1.9173194  )
         2           Fe1 tau(   2) = (  -0.0000005   0.5773506   2.3408318  )
         3           Fe1 tau(   3) = (   0.5000005   0.2886748   1.4987656  )
         4           Fe2 tau(   4) = (   0.5000005   0.2886748   0.2650306  )
         5           Fe2 tau(   5) = (   0.0000000   0.0000000   0.6836385  )
         6           Fe2 tau(   6) = (  -0.0000005   0.5773506   1.1071829  )
         7           Bi  tau(   7) = (   0.5000005   0.2886748   2.0704508  )
         8           Bi  tau(   8) = (  -0.0000005   0.5773506   1.6683657  )
         9           Bi  tau(   9) = (  -0.0000005   0.5773506   0.4345959  )
        10           Bi  tau(  10) = (   0.0000000   0.0000000   0.0112133  )
        11           Bi  tau(  11) = (   0.0000000   0.0000000   1.2449306  )
        12           Bi  tau(  12) = (   0.5000005   0.2886748   0.8366940  )
        13           O   tau(  13) = (  -0.3015234   0.6617768   2.1713309  )
        14           O   tau(  14) = (   0.0776467   0.2740092   2.1713309  )
        15           O   tau(  15) = (   0.2238783   0.7962639   2.1713309  )
        16           O   tau(  16) = (   0.4195843   0.5622547   1.7587968  )
        17           O   tau(  17) = (   0.3032805   0.0822442   1.7587968  )
        18           O   tau(  18) = (   0.7771337   0.2215274   1.7587968  )
        19           O   tau(  19) = (   0.6967279   0.0822438   0.5250654  )
        20           O   tau(  20) = (   0.5804103   0.5622631   0.5250654  )
        21           O   tau(  21) = (   0.2228602   0.2215194   0.5250654  )
        22           O   tau(  22) = (  -0.0757596   0.8510068   0.1130324  )
        23           O   tau(  23) = (  -0.1991137   0.3749123   0.1130324  )
        24           O   tau(  24) = (   0.2748733   0.5061317   0.1130324  )
        25           O   tau(  25) = (   0.1991050   0.3749017   1.3467955  )
        26           O   tau(  26) = (   0.0757731   0.8510045   1.3467955  )
        27           O   tau(  27) = (  -0.2748781   0.5061446   1.3467955  )
        28           O   tau(  28) = (  -0.0776631   0.2740052   0.9376559  )
        29           O   tau(  29) = (   0.3015366   0.6617637   0.9376559  )
        30           O   tau(  30) = (  -0.2238720   0.7962811   0.9376559  )

   Crystallographic axes

     site n.     atom                  positions (cryst. coord.)
         1           Fe1 tau(   1) = (  0.0000000  0.0000000  0.7770559  )
         2           Fe1 tau(   2) = (  0.3333330  0.6666670  0.9486980  )
         3           Fe1 tau(   3) = (  0.6666670  0.3333330  0.6074234  )
         4           Fe2 tau(   4) = (  0.6666670  0.3333330  0.1074122  )
         5           Fe2 tau(   5) = (  0.0000000  0.0000000  0.2770667  )
         6           Fe2 tau(   6) = (  0.3333330  0.6666670  0.4487218  )
         7           Bi  tau(   7) = (  0.6666670  0.3333330  0.8391174  )
         8           Bi  tau(   8) = (  0.3333330  0.6666670  0.6761593  )
         9           Bi  tau(   9) = (  0.3333330  0.6666670  0.1761341  )
        10           Bi  tau(  10) = (  0.0000000  0.0000000  0.0045446  )
        11           Bi  tau(  11) = (  0.0000000  0.0000000  0.5045485  )
        12           Bi  tau(  12) = (  0.6666670  0.3333330  0.3390974  )
        13           O   tau(  13) = (  0.0805536  0.7641541  0.8800023  )
        14           O   tau(  14) = (  0.2358459  0.3163985  0.8800023  )
        15           O   tau(  15) = (  0.6836015  0.9194464  0.8800023  )
        16           O   tau(  16) = (  0.7442022  0.6492358  0.7128095  )
        17           O   tau(  17) = (  0.3507642  0.0949674  0.7128095  )
        18           O   tau(  18) = (  0.9050326  0.2557978  0.7128095  )
        19           O   tau(  19) = (  0.7442114  0.0949669  0.2127998  )
        20           O   tau(  20) = (  0.9050331  0.6492455  0.2127998  )
        21           O   tau(  21) = (  0.3507545  0.2557886  0.2127998  )
        22           O   tau(  22) = (  0.4155694  0.9826580  0.0458101  )
        23           O   tau(  23) = (  0.0173420  0.4329115  0.0458101  )
        24           O   tau(  24) = (  0.5670885  0.5844306  0.0458101  )
        25           O   tau(  25) = (  0.4155546  0.4328992  0.5458326  )
        26           O   tau(  26) = (  0.5671008  0.9826554  0.5458326  )
        27           O   tau(  27) = (  0.0173446  0.5844454  0.5458326  )
        28           O   tau(  28) = (  0.0805338  0.3163939  0.3800155  )
        29           O   tau(  29) = (  0.6836061  0.7641389  0.3800155  )
        30           O   tau(  30) = (  0.2358611  0.9194662  0.3800155  )

     number of k points=     2  Methfessel-Paxton smearing, width (Ry)=  0.0100
                       cart. coord. in units 2pi/alat
        k(    1) = (   0.0000000   0.0000000   0.0000000), wk =   0.2500000
        k(    2) = (   0.0000000  -0.5773503   0.0000000), wk =   0.7500000

                       cryst. coord.
        k(    1) = (   0.0000000   0.0000000   0.0000000), wk =   0.2500000
        k(    2) = (   0.0000000  -0.5000000   0.0000000), wk =   0.7500000

     Dense  grid:    68281 G-vectors     FFT dimensions: (  40,  40, 100)

     Dynamical RAM for                 wfc:       6.51 MB

     Dynamical RAM for     wfc (w. buffer):      32.55 MB

     Dynamical RAM for             U proj.:       0.98 MB

     Dynamical RAM for  U proj. (w. buff.):       4.88 MB

     Dynamical RAM for           str. fact:       1.04 MB

     Dynamical RAM for           local pot:       0.00 MB

     Dynamical RAM for          nlocal pot:      14.65 MB

     Dynamical RAM for                qrad:       3.80 MB

     Dynamical RAM for          rho,v,vnew:       3.39 MB

     Dynamical RAM for               rhoin:       1.13 MB

     Dynamical RAM for            rho*nmix:       8.34 MB

     Dynamical RAM for           G-vectors:       1.11 MB

     Dynamical RAM for          h,s,v(r/c):       0.46 MB

     Dynamical RAM for          <psi|beta>:       1.37 MB

     Dynamical RAM for      wfcinit/wfcrot:      13.94 MB

     Dynamical RAM for           addusdens:      53.40 MB

     Estimated static dynamical RAM per process >      74.02 MB

     Estimated max dynamical RAM per process >     127.42 MB

     Estimated total dynamical RAM >     509.70 MB

     Atomic positions and unit cell read from directory:
     /home/aldair1809/Documentos/QE/4BFO/hubbard_pbe_mp/lr_0.02/bifeo3-Uhubbard.save/


     Check: negative core charge=   -0.000081
     Generating pointlists ...
     new r_m :   0.1435 (alat units)  1.5003 (a.u.) for type    1
     new r_m :   0.1728 (alat units)  1.8065 (a.u.) for type    2
     new r_m :   0.1435 (alat units)  1.5003 (a.u.) for type    3
     new r_m :   0.1435 (alat units)  1.5003 (a.u.) for type    4

     The initial density is read from file :
     /home/aldair1809/Documentos/QE/4BFO/hubbard_pbe_mp/lr_0.02/bifeo3-Uhubbard.save/charge-density


     negative rho (up, down):  1.235E-01 1.235E-01
 --- in v_hubbard ---
Hubbard energy    0.0543
 -------
     Number of +U iterations with fixed ns =  0
     Starting occupations:
 --- enter write_ns ---
 LDA+U parameters:
alpha( 3) =  0.02000000
alpha( 4) =  0.02000000
atom    1   Tr[ns(na)] (up, down, total) =   1.14843  4.96207  6.11051
   spin  1
    eigenvalues: 
  0.167  0.174  0.174  0.317  0.317
    eigenvectors:
  1.000  0.000  0.000  0.000  0.000
  0.000  0.081  0.306  0.026  0.587
  0.000  0.306  0.081  0.587  0.026
  0.000  0.165  0.448  0.205  0.182
  0.000  0.448  0.165  0.182  0.205
    occupations:
  0.167 -0.000 -0.000 -0.000 -0.000
 -0.000  0.261 -0.000  0.036  0.059
 -0.000 -0.000  0.261  0.059 -0.036
 -0.000  0.036  0.059  0.229  0.000
 -0.000  0.059 -0.036  0.000  0.229
   spin  2
    eigenvalues: 
  0.990  0.990  0.993  0.994  0.994
    eigenvectors:
  0.000  0.000  1.000  0.000  0.000
  0.040  0.302  0.000  0.045  0.613
  0.302  0.040  0.000  0.613  0.045
  0.223  0.434  0.000  0.145  0.198
  0.434  0.223  0.000  0.198  0.145
    occupations:
  0.993 -0.000 -0.000 -0.000 -0.000
 -0.000  0.993 -0.000 -0.001 -0.002
 -0.000 -0.000  0.993 -0.002  0.001
 -0.000 -0.001 -0.002  0.992  0.000
 -0.000 -0.002  0.001  0.000  0.992
atomic mag. moment =  -3.81364
atom    2   Tr[ns(na)] (up, down, total) =   1.25263  4.91386  6.16649
   spin  1
    eigenvalues: 
  0.179  0.193  0.193  0.344  0.344
    eigenvectors:
  1.000  0.000  0.000  0.000  0.000
  0.000  0.191  0.073  0.239  0.497
  0.000  0.073  0.191  0.497  0.239
  0.000  0.103  0.632  0.000  0.264
  0.000  0.632  0.103  0.264  0.000
    occupations:
  0.179 -0.000 -0.000 -0.000 -0.000
 -0.000  0.304 -0.000 -0.054  0.039
 -0.000 -0.000  0.304  0.039  0.054
 -0.000 -0.054  0.039  0.233  0.000
 -0.000  0.039  0.054  0.000  0.233
   spin  2
    eigenvalues: 
  0.969  0.969  0.991  0.992  0.992
    eigenvectors:
  0.000  0.000  1.000  0.000  0.000
  0.478  0.173  0.000  0.299  0.049
  0.173  0.478  0.000  0.049  0.299
  0.004  0.344  0.000  0.044  0.608
  0.344  0.004  0.000  0.608  0.044
    occupations:
  0.991 -0.000 -0.000 -0.000 -0.000
 -0.000  0.977 -0.000  0.007 -0.009
 -0.000 -0.000  0.977 -0.009 -0.007
 -0.000  0.007 -0.009  0.984  0.000
 -0.000 -0.009 -0.007  0.000  0.984
atomic mag. moment =  -3.66122
atom    3   Tr[ns(na)] (up, down, total) =   1.26880  4.91890  6.18770
   spin  1
    eigenvalues: 
  0.198  0.198  0.208  0.332  0.332
    eigenvectors:
  0.000  0.000  1.000  0.000  0.000
  0.362  0.241  0.000  0.294  0.104
  0.241  0.362  0.000  0.104  0.294
  0.024  0.374  0.000  0.088  0.514
  0.374  0.024  0.000  0.514  0.088
    occupations:
  0.208 -0.000 -0.000 -0.000 -0.000
 -0.000  0.251 -0.000 -0.053  0.039
 -0.000 -0.000  0.251  0.039  0.053
 -0.000 -0.053  0.039  0.279  0.000
 -0.000  0.039  0.053  0.000  0.279
   spin  2
    eigenvalues: 
  0.973  0.973  0.990  0.991  0.991
    eigenvectors:
  0.000  0.000  1.000  0.000  0.000
  0.456  0.089  0.000  0.340  0.114
  0.089  0.456  0.000  0.114  0.340
  0.044  0.411  0.000  0.023  0.523
  0.411  0.044  0.000  0.523  0.023
    occupations:
  0.990 -0.000 -0.000 -0.000 -0.000
 -0.000  0.981 -0.000  0.006 -0.007
 -0.000 -0.000  0.981 -0.007 -0.006
 -0.000  0.006 -0.007  0.983  0.000
 -0.000 -0.007 -0.006  0.000  0.983
atomic mag. moment =  -3.65010
atom    4   Tr[ns(na)] (up, down, total) =   4.91906  1.27035  6.18941
   spin  1
    eigenvalues: 
  0.973  0.973  0.990  0.991  0.991
    eigenvectors:
  0.000  0.000  1.000  0.000  0.000
  0.010  0.535  0.000  0.050  0.404
  0.535  0.010  0.000  0.404  0.050
  0.190  0.265  0.000  0.126  0.419
  0.265  0.190  0.000  0.419  0.126
    occupations:
  0.990 -0.000 -0.000 -0.000 -0.000
 -0.000  0.981 -0.000 -0.006 -0.007
 -0.000 -0.000  0.981 -0.007  0.006
 -0.000 -0.006 -0.007  0.983  0.000
 -0.000 -0.007  0.006  0.000  0.983
   spin  2
    eigenvalues: 
  0.199  0.199  0.209  0.332  0.332
    eigenvectors:
  0.000  0.000  1.000  0.000  0.000
  0.001  0.602  0.000  0.001  0.396
  0.602  0.001  0.000  0.396  0.001
  0.157  0.240  0.000  0.182  0.421
  0.240  0.157  0.000  0.421  0.182
    occupations:
  0.209 -0.000 -0.000 -0.000 -0.000
 -0.000  0.252 -0.000  0.053  0.039
 -0.000 -0.000  0.252  0.039 -0.053
 -0.000  0.053  0.039  0.279  0.000
 -0.000  0.039 -0.053  0.000  0.279
atomic mag. moment =   3.64872
atom    5   Tr[ns(na)] (up, down, total) =   4.96210  1.14660  6.10870
   spin  1
    eigenvalues: 
  0.990  0.990  0.993  0.994  0.994
    eigenvectors:
  0.000  0.000  1.000  0.000  0.000
  0.336  0.005  0.000  0.440  0.219
  0.005  0.336  0.000  0.219  0.440
  0.141  0.518  0.000  0.000  0.341
  0.518  0.141  0.000  0.341  0.000
    occupations:
  0.993 -0.000 -0.000 -0.000 -0.000
 -0.000  0.993 -0.000  0.001 -0.002
 -0.000 -0.000  0.993 -0.002 -0.001
 -0.000  0.001 -0.002  0.992  0.000
 -0.000 -0.002 -0.001  0.000  0.992
   spin  2
    eigenvalues: 
  0.166  0.173  0.173  0.317  0.317
    eigenvectors:
  1.000  0.000  0.000  0.000  0.000
  0.000  0.366  0.020  0.587  0.026
  0.000  0.020  0.366  0.026  0.587
  0.000  0.060  0.553  0.043  0.343
  0.000  0.553  0.060  0.343  0.043
    occupations:
  0.166 -0.000 -0.000 -0.000 -0.000
 -0.000  0.261 -0.000 -0.036  0.060
 -0.000 -0.000  0.261  0.060  0.036
 -0.000 -0.036  0.060  0.229  0.000
 -0.000  0.060  0.036  0.000  0.229
atomic mag. moment =   3.81550
atom    6   Tr[ns(na)] (up, down, total) =   4.91400  1.25157  6.16557
   spin  1
    eigenvalues: 
  0.969  0.969  0.991  0.992  0.992
    eigenvectors:
  0.000  0.000  1.000  0.000  0.000
  0.009  0.642  0.000  0.071  0.277
  0.642  0.009  0.000  0.277  0.071
  0.180  0.168  0.000  0.125  0.527
  0.168  0.180  0.000  0.527  0.125
    occupations:
  0.991 -0.000 -0.000 -0.000 -0.000
 -0.000  0.977 -0.000 -0.007 -0.009
 -0.000 -0.000  0.977 -0.009  0.007
 -0.000 -0.007 -0.009  0.984  0.000
 -0.000 -0.009  0.007  0.000  0.984
   spin  2
    eigenvalues: 
  0.179  0.193  0.193  0.344  0.344
    eigenvectors:
  1.000  0.000  0.000  0.000  0.000
  0.000  0.004  0.260  0.005  0.730
  0.000  0.260  0.004  0.730  0.005
  0.000  0.172  0.563  0.114  0.151
  0.000  0.563  0.172  0.151  0.114
    occupations:
  0.179 -0.000 -0.000 -0.000 -0.000
 -0.000  0.304 -0.000  0.054  0.039
 -0.000 -0.000  0.304  0.039 -0.054
 -0.000  0.054  0.039  0.233  0.000
 -0.000  0.039 -0.054  0.000  0.233
atomic mag. moment =   3.66242
N of occupied +U levels =   36.928377
 --- exit write_ns ---
 Atomic wfc used for LDA+U Projector are NOT orthogonalized
     Starting wfcs from file

     total cpu time spent up to now is       16.4 secs

     Self-consistent Calculation

     iteration #  1     ecut=    35.00 Ry     beta= 0.40
     CG style diagonalization
     c_bands:  3 eigenvalues not converged
     c_bands:  1 eigenvalues not converged
     c_bands:  2 eigenvalues not converged
     ethr =  1.00E-09,  avg # of iterations = 22.2
 --- enter write_ns ---
 LDA+U parameters:
alpha( 3) =  0.02000000
alpha( 4) =  0.02000000
atom    1   Tr[ns(na)] (up, down, total) =   1.12558  4.96168  6.08727
   spin  1
    eigenvalues: 
  0.159  0.169  0.169  0.314  0.314
    eigenvectors:
  1.000  0.000  0.000  0.000  0.000
  0.000  0.078  0.311  0.025  0.587
  0.000  0.311  0.078  0.587  0.025
  0.000  0.165  0.446  0.204  0.185
  0.000  0.446  0.165  0.185  0.204
    occupations:
  0.159 -0.000 -0.000 -0.000 -0.000
 -0.000  0.258 -0.000  0.037  0.060
 -0.000 -0.000  0.258  0.060 -0.037
 -0.000  0.037  0.060  0.226  0.000
 -0.000  0.060 -0.037  0.000  0.226
   spin  2
    eigenvalues: 
  0.990  0.990  0.993  0.994  0.994
    eigenvectors:
  0.000  0.000  1.000  0.000  0.000
  0.042  0.296  0.000  0.044  0.618
  0.296  0.042  0.000  0.618  0.044
  0.225  0.437  0.000  0.146  0.191
  0.437  0.225  0.000  0.191  0.146
    occupations:
  0.993 -0.000 -0.000 -0.000 -0.000
 -0.000  0.993 -0.000 -0.001 -0.002
 -0.000 -0.000  0.993 -0.002  0.001
 -0.000 -0.001 -0.002  0.992  0.000
 -0.000 -0.002  0.001  0.000  0.992
atomic mag. moment =  -3.83610
atom    2   Tr[ns(na)] (up, down, total) =   1.24018  4.91501  6.15518
   spin  1
    eigenvalues: 
  0.177  0.189  0.189  0.342  0.342
    eigenvectors:
  1.000  0.000  0.000  0.000  0.000
  0.000  0.195  0.073  0.244  0.488
  0.000  0.073  0.195  0.488  0.244
  0.000  0.101  0.631  0.000  0.268
  0.000  0.631  0.101  0.268  0.000
    occupations:
  0.177 -0.000 -0.000 -0.000 -0.000
 -0.000  0.301 -0.000 -0.054  0.040
 -0.000 -0.000  0.301  0.040  0.054
 -0.000 -0.054  0.040  0.230  0.000
 -0.000  0.040  0.054  0.000  0.230
   spin  2
    eigenvalues: 
  0.970  0.970  0.991  0.992  0.992
    eigenvectors:
  0.000  0.000  1.000  0.000  0.000
  0.481  0.171  0.000  0.299  0.049
  0.171  0.481  0.000  0.049  0.299
  0.004  0.344  0.000  0.044  0.608
  0.344  0.004  0.000  0.608  0.044
    occupations:
  0.991 -0.000 -0.000 -0.000 -0.000
 -0.000  0.978 -0.000  0.007 -0.009
 -0.000 -0.000  0.978 -0.009 -0.007
 -0.000  0.007 -0.009  0.984  0.000
 -0.000 -0.009 -0.007  0.000  0.984
atomic mag. moment =  -3.67483
atom    3   Tr[ns(na)] (up, down, total) =   1.26415  4.91942  6.18357
   spin  1
    eigenvalues: 
  0.197  0.197  0.207  0.331  0.331
    eigenvectors:
  0.000  0.000  1.000  0.000  0.000
  0.361  0.239  0.000  0.295  0.105
  0.239  0.361  0.000  0.105  0.295
  0.024  0.376  0.000  0.088  0.512
  0.376  0.024  0.000  0.512  0.088
    occupations:
  0.207 -0.000 -0.000 -0.000 -0.000
 -0.000  0.251 -0.000 -0.053  0.039
 -0.000 -0.000  0.251  0.039  0.053
 -0.000 -0.053  0.039  0.278  0.000
 -0.000  0.039  0.053  0.000  0.278
   spin  2
    eigenvalues: 
  0.973  0.973  0.990  0.991  0.991
    eigenvectors:
  0.000  0.000  1.000  0.000  0.000
  0.456  0.090  0.000  0.340  0.115
  0.090  0.456  0.000  0.115  0.340
  0.043  0.411  0.000  0.023  0.523
  0.411  0.043  0.000  0.523  0.023
    occupations:
  0.990 -0.000 -0.000 -0.000 -0.000
 -0.000  0.981 -0.000  0.006 -0.007
 -0.000 -0.000  0.981 -0.007 -0.006
 -0.000  0.006 -0.007  0.983  0.000
 -0.000 -0.007 -0.006  0.000  0.983
atomic mag. moment =  -3.65528
atom    4   Tr[ns(na)] (up, down, total) =   4.91865  1.25367  6.17232
   spin  1
    eigenvalues: 
  0.973  0.973  0.990  0.991  0.991
    eigenvectors:
  0.000  0.000  1.000  0.000  0.000
  0.010  0.534  0.000  0.051  0.405
  0.534  0.010  0.000  0.405  0.051
  0.190  0.265  0.000  0.126  0.419
  0.265  0.190  0.000  0.419  0.126
    occupations:
  0.990 -0.000 -0.000 -0.000 -0.000
 -0.000  0.981 -0.000 -0.006 -0.007
 -0.000 -0.000  0.981 -0.007  0.006
 -0.000 -0.006 -0.007  0.983  0.000
 -0.000 -0.007  0.006  0.000  0.983
   spin  2
    eigenvalues: 
  0.195  0.195  0.205  0.330  0.330
    eigenvectors:
  0.000  0.000  1.000  0.000  0.000
  0.001  0.598  0.000  0.002  0.400
  0.598  0.001  0.000  0.400  0.002
  0.158  0.243  0.000  0.183  0.416
  0.243  0.158  0.000  0.416  0.183
    occupations:
  0.205 -0.000 -0.000 -0.000 -0.000
 -0.000  0.249 -0.000  0.053  0.040
 -0.000 -0.000  0.249  0.040 -0.053
 -0.000  0.053  0.040  0.276  0.000
 -0.000  0.040 -0.053  0.000  0.276
atomic mag. moment =   3.66497
atom    5   Tr[ns(na)] (up, down, total) =   4.96228  1.14885  6.11112
   spin  1
    eigenvalues: 
  0.990  0.990  0.993  0.994  0.994
    eigenvectors:
  0.000  0.000  1.000  0.000  0.000
  0.338  0.004  0.000  0.445  0.213
  0.004  0.338  0.000  0.213  0.445
  0.142  0.516  0.000  0.000  0.342
  0.516  0.142  0.000  0.342  0.000
    occupations:
  0.993 -0.000 -0.000 -0.000 -0.000
 -0.000  0.993 -0.000  0.001 -0.002
 -0.000 -0.000  0.993 -0.002 -0.001
 -0.000  0.001 -0.002  0.992  0.000
 -0.000 -0.002 -0.001  0.000  0.992
   spin  2
    eigenvalues: 
  0.170  0.174  0.174  0.316  0.316
    eigenvectors:
  1.000  0.000  0.000  0.000  0.000
  0.000  0.366  0.020  0.589  0.025
  0.000  0.020  0.366  0.025  0.589
  0.000  0.060  0.554  0.045  0.342
  0.000  0.554  0.060  0.342  0.045
    occupations:
  0.170 -0.000 -0.000 -0.000 -0.000
 -0.000  0.261 -0.000 -0.036  0.059
 -0.000 -0.000  0.261  0.059  0.036
 -0.000 -0.036  0.059  0.229  0.000
 -0.000  0.059  0.036  0.000  0.229
atomic mag. moment =   3.81343
atom    6   Tr[ns(na)] (up, down, total) =   4.91452  1.25091  6.16542
   spin  1
    eigenvalues: 
  0.969  0.969  0.991  0.992  0.992
    eigenvectors:
  0.000  0.000  1.000  0.000  0.000
  0.009  0.643  0.000  0.071  0.277
  0.643  0.009  0.000  0.277  0.071
  0.179  0.168  0.000  0.124  0.528
  0.168  0.179  0.000  0.528  0.124
    occupations:
  0.991 -0.000 -0.000 -0.000 -0.000
 -0.000  0.977 -0.000 -0.007 -0.009
 -0.000 -0.000  0.977 -0.009  0.007
 -0.000 -0.007 -0.009  0.984  0.000
 -0.000 -0.009  0.007  0.000  0.984
   spin  2
    eigenvalues: 
  0.178  0.193  0.193  0.343  0.343
    eigenvectors:
  1.000  0.000  0.000  0.000  0.000
  0.000  0.004  0.260  0.005  0.731
  0.000  0.260  0.004  0.731  0.005
  0.000  0.173  0.563  0.113  0.150
  0.000  0.563  0.173  0.150  0.113
    occupations:
  0.178 -0.000 -0.000 -0.000 -0.000
 -0.000  0.304 -0.000  0.053  0.039
 -0.000 -0.000  0.304  0.039 -0.053
 -0.000  0.053  0.039  0.233  0.000
 -0.000  0.039 -0.053  0.000  0.233
atomic mag. moment =   3.66361
N of occupied +U levels =   36.874883
 --- exit write_ns ---

     negative rho (up, down):  1.235E-01 1.235E-01
 --- in v_hubbard ---
Hubbard energy    0.0543
 -------

     total cpu time spent up to now is      809.9 secs

     total energy              =   -3194.98304906 Ry
     estimated scf accuracy    <       0.00075958 Ry

     total magnetization       =    -0.02 Bohr mag/cell
     absolute magnetization    =    27.34 Bohr mag/cell

     iteration #  2     ecut=    35.00 Ry     beta= 0.40
     CG style diagonalization
     ethr =  2.58E-07,  avg # of iterations =  3.4
 --- enter write_ns ---
 LDA+U parameters:
alpha( 3) =  0.02000000
alpha( 4) =  0.02000000
atom    1   Tr[ns(na)] (up, down, total) =   1.23057  4.96564  6.19621
   spin  1
    eigenvalues: 
  0.189  0.189  0.204  0.324  0.324
    eigenvectors:
  0.000  0.000  1.000  0.000  0.000
  0.094  0.281  0.000  0.031  0.593
  0.281  0.094  0.000  0.593  0.031
  0.167  0.458  0.000  0.209  0.166
  0.458  0.167  0.000  0.166  0.209
    occupations:
  0.204 -0.000 -0.000 -0.000 -0.000
 -0.000  0.273 -0.000  0.031  0.057
 -0.000 -0.000  0.273  0.057 -0.031
 -0.000  0.031  0.057  0.240  0.000
 -0.000  0.057 -0.031  0.000  0.240
   spin  2
    eigenvalues: 
  0.991  0.991  0.993  0.995  0.995
    eigenvectors:
  0.000  0.000  1.000  0.000  0.000
  0.054  0.251  0.000  0.040  0.656
  0.251  0.054  0.000  0.656  0.040
  0.229  0.466  0.000  0.158  0.146
  0.466  0.229  0.000  0.146  0.158
    occupations:
  0.993 -0.000 -0.000 -0.000 -0.000
 -0.000  0.994 -0.000 -0.001 -0.001
 -0.000 -0.000  0.994 -0.001  0.001
 -0.000 -0.001 -0.001  0.992  0.000
 -0.000 -0.001  0.001  0.000  0.992
atomic mag. moment =  -3.73506
atom    2   Tr[ns(na)] (up, down, total) =   1.28334  4.91556  6.19890
   spin  1
    eigenvalues: 
  0.183  0.204  0.204  0.347  0.347
    eigenvectors:
  1.000  0.000  0.000  0.000  0.000
  0.000  0.176  0.074  0.214  0.536
  0.000  0.074  0.176  0.536  0.214
  0.000  0.113  0.637  0.000  0.250
  0.000  0.637  0.113  0.250  0.000
    occupations:
  0.183 -0.000 -0.000 -0.000 -0.000
 -0.000  0.311 -0.000 -0.051  0.035
 -0.000 -0.000  0.311  0.035  0.051
 -0.000 -0.051  0.035  0.239  0.000
 -0.000  0.035  0.051  0.000  0.239
   spin  2
    eigenvalues: 
  0.970  0.970  0.991  0.993  0.993
    eigenvectors:
  0.000  0.000  1.000  0.000  0.000
  0.476  0.177  0.000  0.297  0.050
  0.177  0.476  0.000  0.050  0.297
  0.004  0.343  0.000  0.044  0.609
  0.343  0.004  0.000  0.609  0.044
    occupations:
  0.991 -0.000 -0.000 -0.000 -0.000
 -0.000  0.978 -0.000  0.007 -0.009
 -0.000 -0.000  0.978 -0.009 -0.007
 -0.000  0.007 -0.009  0.985  0.000
 -0.000 -0.009 -0.007  0.000  0.985
atomic mag. moment =  -3.63222
atom    3   Tr[ns(na)] (up, down, total) =   1.27522  4.92286  6.19809
   spin  1
    eigenvalues: 
  0.200  0.200  0.211  0.333  0.333
    eigenvectors:
  0.000  0.000  1.000  0.000  0.000
  0.370  0.243  0.000  0.293  0.095
  0.243  0.370  0.000  0.095  0.293
  0.021  0.366  0.000  0.093  0.519
  0.366  0.021  0.000  0.519  0.093
    occupations:
  0.211 -0.000 -0.000 -0.000 -0.000
 -0.000  0.251 -0.000 -0.051  0.039
 -0.000 -0.000  0.251  0.039  0.051
 -0.000 -0.051  0.039  0.281  0.000
 -0.000  0.039  0.051  0.000  0.281
   spin  2
    eigenvalues: 
  0.975  0.975  0.990  0.991  0.991
    eigenvectors:
  0.000  0.000  1.000  0.000  0.000
  0.451  0.081  0.000  0.346  0.122
  0.081  0.451  0.000  0.122  0.346
  0.049  0.419  0.000  0.020  0.512
  0.419  0.049  0.000  0.512  0.020
    occupations:
  0.990 -0.000 -0.000 -0.000 -0.000
 -0.000  0.983 -0.000  0.005 -0.006
 -0.000 -0.000  0.983 -0.006 -0.005
 -0.000  0.005 -0.006  0.984  0.000
 -0.000 -0.006 -0.005  0.000  0.984
atomic mag. moment =  -3.64764
atom    4   Tr[ns(na)] (up, down, total) =   4.91478  1.28835  6.20312
   spin  1
    eigenvalues: 
  0.971  0.971  0.991  0.991  0.991
    eigenvectors:
  0.000  0.000  1.000  0.000  0.000
  0.007  0.552  0.000  0.042  0.398
  0.552  0.007  0.000  0.398  0.042
  0.183  0.257  0.000  0.127  0.433
  0.257  0.183  0.000  0.433  0.127
    occupations:
  0.991 -0.000 -0.000 -0.000 -0.000
 -0.000  0.980 -0.000 -0.007 -0.007
 -0.000 -0.000  0.980 -0.007  0.007
 -0.000 -0.007 -0.007  0.982  0.000
 -0.000 -0.007  0.007  0.000  0.982
   spin  2
    eigenvalues: 
  0.202  0.202  0.213  0.336  0.336
    eigenvectors:
  0.000  0.000  1.000  0.000  0.000
  0.001  0.597  0.000  0.001  0.401
  0.597  0.001  0.000  0.401  0.001
  0.158  0.244  0.000  0.181  0.417
  0.244  0.158  0.000  0.417  0.181
    occupations:
  0.213 -0.000 -0.000 -0.000 -0.000
 -0.000  0.256 -0.000  0.053  0.039
 -0.000 -0.000  0.256  0.039 -0.053
 -0.000  0.053  0.039  0.282  0.000
 -0.000  0.039 -0.053  0.000  0.282
atomic mag. moment =   3.62643
atom    5   Tr[ns(na)] (up, down, total) =   4.94732  1.12932  6.07663
   spin  1
    eigenvalues: 
  0.983  0.983  0.993  0.994  0.994
    eigenvectors:
  0.000  0.000  1.000  0.000  0.000
  0.377  0.097  0.000  0.333  0.193
  0.097  0.377  0.000  0.193  0.333
  0.064  0.462  0.000  0.014  0.460
  0.462  0.064  0.000  0.460  0.014
    occupations:
  0.993 -0.000 -0.000 -0.000 -0.000
 -0.000  0.989 -0.000  0.004 -0.004
 -0.000 -0.000  0.989 -0.004 -0.004
 -0.000  0.004 -0.004  0.988  0.000
 -0.000 -0.004 -0.004  0.000  0.988
   spin  2
    eigenvalues: 
  0.159  0.172  0.172  0.314  0.314
    eigenvectors:
  1.000  0.000  0.000  0.000  0.000
  0.000  0.366  0.024  0.580  0.031
  0.000  0.024  0.366  0.031  0.580
  0.000  0.058  0.553  0.042  0.348
  0.000  0.553  0.058  0.348  0.042
    occupations:
  0.159 -0.000 -0.000 -0.000 -0.000
 -0.000  0.258 -0.000 -0.037  0.059
 -0.000 -0.000  0.258  0.059  0.037
 -0.000 -0.037  0.059  0.227  0.000
 -0.000  0.059  0.037  0.000  0.227
atomic mag. moment =   3.81800
atom    6   Tr[ns(na)] (up, down, total) =   4.90263  1.23193  6.13455
   spin  1
    eigenvalues: 
  0.964  0.964  0.991  0.992  0.992
    eigenvectors:
  0.000  0.000  1.000  0.000  0.000
  0.007  0.627  0.000  0.060  0.305
  0.627  0.007  0.000  0.305  0.060
  0.178  0.188  0.000  0.126  0.509
  0.188  0.178  0.000  0.509  0.126
    occupations:
  0.991 -0.000 -0.000 -0.000 -0.000
 -0.000  0.974 -0.000 -0.009 -0.011
 -0.000 -0.000  0.974 -0.011  0.009
 -0.000 -0.009 -0.011  0.982  0.000
 -0.000 -0.011  0.009  0.000  0.982
   spin  2
    eigenvalues: 
  0.176  0.187  0.187  0.341  0.341
    eigenvectors:
  1.000  0.000  0.000  0.000  0.000
  0.000  0.007  0.266  0.003  0.724
  0.000  0.266  0.007  0.724  0.003
  0.000  0.170  0.557  0.122  0.151
  0.000  0.557  0.170  0.151  0.122
    occupations:
  0.176 -0.000 -0.000 -0.000 -0.000
 -0.000  0.299 -0.000  0.054  0.043
 -0.000 -0.000  0.299  0.043 -0.054
 -0.000  0.054  0.043  0.229  0.000
 -0.000  0.043 -0.054  0.000  0.229
atomic mag. moment =   3.67070
N of occupied +U levels =   37.007500
 --- exit write_ns ---

     negative rho (up, down):  1.235E-01 1.235E-01
 --- in v_hubbard ---
Hubbard energy    0.0543
 -------

     total cpu time spent up to now is      936.9 secs

     total energy              =   -3194.98225964 Ry
     estimated scf accuracy    <       0.01779341 Ry

     total magnetization       =    -0.00 Bohr mag/cell
     absolute magnetization    =    27.17 Bohr mag/cell

     iteration #  3     ecut=    35.00 Ry     beta= 0.40
     CG style diagonalization
     ethr =  2.58E-07,  avg # of iterations =  3.3
 --- enter write_ns ---
 LDA+U parameters:
alpha( 3) =  0.02000000
alpha( 4) =  0.02000000
atom    1   Tr[ns(na)] (up, down, total) =   1.13455  4.95940  6.09395
   spin  1
    eigenvalues: 
  0.158  0.172  0.172  0.316  0.316
    eigenvectors:
  1.000  0.000  0.000  0.000  0.000
  0.000  0.078  0.314  0.025  0.584
  0.000  0.314  0.078  0.584  0.025
  0.000  0.166  0.443  0.204  0.187
  0.000  0.443  0.166  0.187  0.204
    occupations:
  0.158 -0.000 -0.000 -0.000 -0.000
 -0.000  0.260 -0.000  0.037  0.060
 -0.000 -0.000  0.260  0.060 -0.037
 -0.000  0.037  0.060  0.228  0.000
 -0.000  0.060 -0.037  0.000  0.228
   spin  2
    eigenvalues: 
  0.989  0.989  0.993  0.994  0.994
    eigenvectors:
  0.000  0.000  1.000  0.000  0.000
  0.026  0.361  0.000  0.041  0.572
  0.361  0.026  0.000  0.572  0.041
  0.214  0.399  0.000  0.135  0.252
  0.399  0.214  0.000  0.252  0.135
    occupations:
  0.993 -0.000 -0.000 -0.000 -0.000
 -0.000  0.992 -0.000 -0.002 -0.002
 -0.000 -0.000  0.992 -0.002  0.002
 -0.000 -0.002 -0.002  0.991  0.000
 -0.000 -0.002  0.002  0.000  0.991
atomic mag. moment =  -3.82485
atom    2   Tr[ns(na)] (up, down, total) =   1.23648  4.90917  6.14565
   spin  1
    eigenvalues: 
  0.178  0.188  0.188  0.342  0.342
    eigenvectors:
  1.000  0.000  0.000  0.000  0.000
  0.000  0.204  0.070  0.258  0.467
  0.000  0.070  0.204  0.467  0.258
  0.000  0.097  0.628  0.000  0.275
  0.000  0.628  0.097  0.275  0.000
    occupations:
  0.178 -0.000 -0.000 -0.000 -0.000
 -0.000  0.299 -0.000 -0.054  0.042
 -0.000 -0.000  0.299  0.042  0.054
 -0.000 -0.054  0.042  0.230  0.000
 -0.000  0.042  0.054  0.000  0.230
   spin  2
    eigenvalues: 
  0.967  0.967  0.991  0.992  0.992
    eigenvectors:
  0.000  0.000  1.000  0.000  0.000
  0.477  0.174  0.000  0.298  0.052
  0.174  0.477  0.000  0.052  0.298
  0.005  0.345  0.000  0.044  0.607
  0.345  0.005  0.000  0.607  0.044
    occupations:
  0.991 -0.000 -0.000 -0.000 -0.000
 -0.000  0.976 -0.000  0.007 -0.010
 -0.000 -0.000  0.976 -0.010 -0.007
 -0.000  0.007 -0.010  0.983  0.000
 -0.000 -0.010 -0.007  0.000  0.983
atomic mag. moment =  -3.67269
atom    3   Tr[ns(na)] (up, down, total) =   1.25549  4.91543  6.17091
   spin  1
    eigenvalues: 
  0.195  0.195  0.206  0.330  0.330
    eigenvectors:
  0.000  0.000  1.000  0.000  0.000
  0.365  0.225  0.000  0.306  0.104
  0.225  0.365  0.000  0.104  0.306
  0.025  0.385  0.000  0.085  0.506
  0.385  0.025  0.000  0.506  0.085
    occupations:
  0.206 -0.000 -0.000 -0.000 -0.000
 -0.000  0.250 -0.000 -0.053  0.041
 -0.000 -0.000  0.250  0.041  0.053
 -0.000 -0.053  0.041  0.275  0.000
 -0.000  0.041  0.053  0.000  0.275
   spin  2
    eigenvalues: 
  0.972  0.972  0.990  0.991  0.991
    eigenvectors:
  0.000  0.000  1.000  0.000  0.000
  0.457  0.095  0.000  0.336  0.112
  0.095  0.457  0.000  0.112  0.336
  0.040  0.408  0.000  0.024  0.528
  0.408  0.040  0.000  0.528  0.024
    occupations:
  0.990 -0.000 -0.000 -0.000 -0.000
 -0.000  0.980 -0.000  0.006 -0.007
 -0.000 -0.000  0.980 -0.007 -0.006
 -0.000  0.006 -0.007  0.982  0.000
 -0.000 -0.007 -0.006  0.000  0.982
atomic mag. moment =  -3.65994
atom    4   Tr[ns(na)] (up, down, total) =   4.92341  1.29500  6.21841
   spin  1
    eigenvalues: 
  0.975  0.975  0.991  0.991  0.991
    eigenvectors:
  0.000  0.000  1.000  0.000  0.000
  0.011  0.527  0.000  0.050  0.413
  0.527  0.011  0.000  0.413  0.050
  0.191  0.272  0.000  0.126  0.412
  0.272  0.191  0.000  0.412  0.126
    occupations:
  0.991 -0.000 -0.000 -0.000 -0.000
 -0.000  0.983 -0.000 -0.005 -0.006
 -0.000 -0.000  0.983 -0.006  0.005
 -0.000 -0.005 -0.006  0.984  0.000
 -0.000 -0.006  0.005  0.000  0.984
   spin  2
    eigenvalues: 
  0.204  0.204  0.213  0.336  0.336
    eigenvectors:
  0.000  0.000  1.000  0.000  0.000
  0.002  0.617  0.000  0.001  0.380
  0.617  0.002  0.000  0.380  0.001
  0.152  0.229  0.000  0.182  0.437
  0.229  0.152  0.000  0.437  0.182
    occupations:
  0.213 -0.000 -0.000 -0.000 -0.000
 -0.000  0.255 -0.000  0.052  0.037
 -0.000 -0.000  0.255  0.037 -0.052
 -0.000  0.052  0.037  0.286  0.000
 -0.000  0.037 -0.052  0.000  0.286
atomic mag. moment =   3.62841
atom    5   Tr[ns(na)] (up, down, total) =   4.96385  1.16309  6.12695
   spin  1
    eigenvalues: 
  0.991  0.991  0.993  0.995  0.995
    eigenvectors:
  0.000  0.000  1.000  0.000  0.000
  0.308  0.000  0.000  0.458  0.235
  0.000  0.308  0.000  0.235  0.458
  0.159  0.533  0.000  0.003  0.305
  0.533  0.159  0.000  0.305  0.003
    occupations:
  0.993 -0.000 -0.000 -0.000 -0.000
 -0.000  0.993 -0.000  0.001 -0.001
 -0.000 -0.000  0.993 -0.001 -0.001
 -0.000  0.001 -0.001  0.992  0.000
 -0.000 -0.001 -0.001  0.000  0.992
   spin  2
    eigenvalues: 
  0.176  0.176  0.176  0.317  0.317
    eigenvectors:
  1.000  0.000  0.000  0.000  0.000
  0.000  0.365  0.017  0.598  0.021
  0.000  0.017  0.365  0.021  0.598
  0.000  0.063  0.556  0.045  0.336
  0.000  0.556  0.063  0.336  0.045
    occupations:
  0.176 -0.000 -0.000 -0.000 -0.000
 -0.000  0.264 -0.000 -0.035  0.059
 -0.000 -0.000  0.264  0.059  0.035
 -0.000 -0.035  0.059  0.230  0.000
 -0.000  0.059  0.035  0.000  0.230
atomic mag. moment =   3.80076
atom    6   Tr[ns(na)] (up, down, total) =   4.91779  1.26949  6.18728
   spin  1
    eigenvalues: 
  0.971  0.971  0.991  0.993  0.993
    eigenvectors:
  0.000  0.000  1.000  0.000  0.000
  0.010  0.643  0.000  0.072  0.275
  0.643  0.010  0.000  0.275  0.072
  0.180  0.168  0.000  0.124  0.528
  0.168  0.180  0.000  0.528  0.124
    occupations:
  0.991 -0.000 -0.000 -0.000 -0.000
 -0.000  0.978 -0.000 -0.006 -0.008
 -0.000 -0.000  0.978 -0.008  0.006
 -0.000 -0.006 -0.008  0.985  0.000
 -0.000 -0.008  0.006  0.000  0.985
   spin  2
    eigenvalues: 
  0.181  0.198  0.198  0.346  0.346
    eigenvectors:
  1.000  0.000  0.000  0.000  0.000
  0.000  0.002  0.252  0.008  0.738
  0.000  0.252  0.002  0.738  0.008
  0.000  0.174  0.572  0.107  0.147
  0.000  0.572  0.174  0.147  0.107
    occupations:
  0.181 -0.000 -0.000 -0.000 -0.000
 -0.000  0.308 -0.000  0.053  0.037
 -0.000 -0.000  0.308  0.037 -0.053
 -0.000  0.053  0.037  0.236  0.000
 -0.000  0.037 -0.053  0.000  0.236
atomic mag. moment =   3.64830
N of occupied +U levels =   36.943148
 --- exit write_ns ---

     negative rho (up, down):  1.235E-01 1.235E-01
 --- in v_hubbard ---
Hubbard energy    0.0543
 -------

     total cpu time spent up to now is     1058.2 secs

     total energy              =   -3194.98318514 Ry
     estimated scf accuracy    <       0.00491387 Ry

     total magnetization       =    -0.03 Bohr mag/cell
     absolute magnetization    =    27.30 Bohr mag/cell

     iteration #  4     ecut=    35.00 Ry     beta= 0.40
     CG style diagonalization
     ethr =  2.58E-07,  avg # of iterations =  3.0
 --- enter write_ns ---
 LDA+U parameters:
alpha( 3) =  0.02000000
alpha( 4) =  0.02000000
atom    1   Tr[ns(na)] (up, down, total) =   1.14196  4.96221  6.10417
   spin  1
    eigenvalues: 
  0.165  0.173  0.173  0.316  0.316
    eigenvectors:
  1.000  0.000  0.000  0.000  0.000
  0.000  0.080  0.307  0.026  0.587
  0.000  0.307  0.080  0.587  0.026
  0.000  0.166  0.447  0.205  0.183
  0.000  0.447  0.166  0.183  0.205
    occupations:
  0.165 -0.000 -0.000 -0.000 -0.000
 -0.000  0.260 -0.000  0.037  0.059
 -0.000 -0.000  0.260  0.059 -0.037
 -0.000  0.037  0.059  0.228  0.000
 -0.000  0.059 -0.037  0.000  0.228
   spin  2
    eigenvalues: 
  0.990  0.990  0.993  0.994  0.994
    eigenvectors:
  0.000  0.000  1.000  0.000  0.000
  0.042  0.298  0.000  0.045  0.615
  0.298  0.042  0.000  0.615  0.045
  0.225  0.436  0.000  0.146  0.194
  0.436  0.225  0.000  0.194  0.146
    occupations:
  0.993 -0.000 -0.000 -0.000 -0.000
 -0.000  0.993 -0.000 -0.001 -0.002
 -0.000 -0.000  0.993 -0.002  0.001
 -0.000 -0.001 -0.002  0.992  0.000
 -0.000 -0.002  0.001  0.000  0.992
atomic mag. moment =  -3.82025
atom    2   Tr[ns(na)] (up, down, total) =   1.25488  4.91540  6.17028
   spin  1
    eigenvalues: 
  0.180  0.193  0.193  0.344  0.344
    eigenvectors:
  1.000  0.000  0.000  0.000  0.000
  0.000  0.191  0.073  0.239  0.497
  0.000  0.073  0.191  0.497  0.239
  0.000  0.103  0.633  0.000  0.264
  0.000  0.633  0.103  0.264  0.000
    occupations:
  0.180 -0.000 -0.000 -0.000 -0.000
 -0.000  0.304 -0.000 -0.054  0.039
 -0.000 -0.000  0.304  0.039  0.054
 -0.000 -0.054  0.039  0.233  0.000
 -0.000  0.039  0.054  0.000  0.233
   spin  2
    eigenvalues: 
  0.970  0.970  0.991  0.992  0.992
    eigenvectors:
  0.000  0.000  1.000  0.000  0.000
  0.480  0.172  0.000  0.299  0.049
  0.172  0.480  0.000  0.049  0.299
  0.004  0.344  0.000  0.044  0.608
  0.344  0.004  0.000  0.608  0.044
    occupations:
  0.991 -0.000 -0.000 -0.000 -0.000
 -0.000  0.978 -0.000  0.007 -0.009
 -0.000 -0.000  0.978 -0.009 -0.007
 -0.000  0.007 -0.009  0.985  0.000
 -0.000 -0.009 -0.007  0.000  0.985
atomic mag. moment =  -3.66051
atom    3   Tr[ns(na)] (up, down, total) =   1.27002  4.91967  6.18969
   spin  1
    eigenvalues: 
  0.198  0.198  0.208  0.332  0.332
    eigenvectors:
  0.000  0.000  1.000  0.000  0.000
  0.362  0.240  0.000  0.294  0.104
  0.240  0.362  0.000  0.104  0.294
  0.024  0.374  0.000  0.088  0.514
  0.374  0.024  0.000  0.514  0.088
    occupations:
  0.208 -0.000 -0.000 -0.000 -0.000
 -0.000  0.252 -0.000 -0.053  0.039
 -0.000 -0.000  0.252  0.039  0.053
 -0.000 -0.053  0.039  0.279  0.000
 -0.000  0.039  0.053  0.000  0.279
   spin  2
    eigenvalues: 
  0.973  0.973  0.990  0.991  0.991
    eigenvectors:
  0.000  0.000  1.000  0.000  0.000
  0.456  0.089  0.000  0.340  0.115
  0.089  0.456  0.000  0.115  0.340
  0.044  0.411  0.000  0.023  0.523
  0.411  0.044  0.000  0.523  0.023
    occupations:
  0.990 -0.000 -0.000 -0.000 -0.000
 -0.000  0.982 -0.000  0.006 -0.007
 -0.000 -0.000  0.982 -0.007 -0.006
 -0.000  0.006 -0.007  0.983  0.000
 -0.000 -0.007 -0.006  0.000  0.983
atomic mag. moment =  -3.64965
atom    4   Tr[ns(na)] (up, down, total) =   4.91857  1.26367  6.18224
   spin  1
    eigenvalues: 
  0.973  0.973  0.990  0.991  0.991
    eigenvectors:
  0.000  0.000  1.000  0.000  0.000
  0.010  0.537  0.000  0.050  0.402
  0.537  0.010  0.000  0.402  0.050
  0.189  0.263  0.000  0.126  0.421
  0.263  0.189  0.000  0.421  0.126
    occupations:
  0.990 -0.000 -0.000 -0.000 -0.000
 -0.000  0.981 -0.000 -0.006 -0.007
 -0.000 -0.000  0.981 -0.007  0.006
 -0.000 -0.006 -0.007  0.983  0.000
 -0.000 -0.007  0.006  0.000  0.983
   spin  2
    eigenvalues: 
  0.197  0.197  0.207  0.331  0.331
    eigenvectors:
  0.000  0.000  1.000  0.000  0.000
  0.001  0.599  0.000  0.001  0.399
  0.599  0.001  0.000  0.399  0.001
  0.158  0.242  0.000  0.183  0.417
  0.242  0.158  0.000  0.417  0.183
    occupations:
  0.207 -0.000 -0.000 -0.000 -0.000
 -0.000  0.251 -0.000  0.053  0.040
 -0.000 -0.000  0.251  0.040 -0.053
 -0.000  0.053  0.040  0.278  0.000
 -0.000  0.040 -0.053  0.000  0.278
atomic mag. moment =   3.65489
atom    5   Tr[ns(na)] (up, down, total) =   4.96199  1.14479  6.10677
   spin  1
    eigenvalues: 
  0.990  0.990  0.993  0.994  0.994
    eigenvectors:
  0.000  0.000  1.000  0.000  0.000
  0.341  0.005  0.000  0.440  0.215
  0.005  0.341  0.000  0.215  0.440
  0.139  0.515  0.000  0.000  0.346
  0.515  0.139  0.000  0.346  0.000
    occupations:
  0.993 -0.000 -0.000 -0.000 -0.000
 -0.000  0.993 -0.000  0.001 -0.002
 -0.000 -0.000  0.993 -0.002 -0.001
 -0.000  0.001 -0.002  0.992  0.000
 -0.000 -0.002 -0.001  0.000  0.992
   spin  2
    eigenvalues: 
  0.167  0.173  0.173  0.316  0.316
    eigenvectors:
  1.000  0.000  0.000  0.000  0.000
  0.000  0.367  0.021  0.587  0.026
  0.000  0.021  0.367  0.026  0.587
  0.000  0.059  0.553  0.044  0.343
  0.000  0.553  0.059  0.343  0.044
    occupations:
  0.167 -0.000 -0.000 -0.000 -0.000
 -0.000  0.261 -0.000 -0.036  0.059
 -0.000 -0.000  0.261  0.059  0.036
 -0.000 -0.036  0.059  0.228  0.000
 -0.000  0.059  0.036  0.000  0.228
atomic mag. moment =   3.81720
atom    6   Tr[ns(na)] (up, down, total) =   4.91406  1.24957  6.16363
   spin  1
    eigenvalues: 
  0.969  0.969  0.991  0.992  0.992
    eigenvectors:
  0.000  0.000  1.000  0.000  0.000
  0.009  0.643  0.000  0.071  0.277
  0.643  0.009  0.000  0.277  0.071
  0.180  0.168  0.000  0.125  0.527
  0.168  0.180  0.000  0.527  0.125
    occupations:
  0.991 -0.000 -0.000 -0.000 -0.000
 -0.000  0.977 -0.000 -0.007 -0.009
 -0.000 -0.000  0.977 -0.009  0.007
 -0.000 -0.007 -0.009  0.984  0.000
 -0.000 -0.009  0.007  0.000  0.984
   spin  2
    eigenvalues: 
  0.179  0.192  0.192  0.343  0.343
    eigenvectors:
  1.000  0.000  0.000  0.000  0.000
  0.000  0.004  0.260  0.005  0.730
  0.000  0.260  0.004  0.730  0.005
  0.000  0.172  0.563  0.114  0.151
  0.000  0.563  0.172  0.151  0.114
    occupations:
  0.179 -0.000 -0.000 -0.000 -0.000
 -0.000  0.303 -0.000  0.054  0.039
 -0.000 -0.000  0.303  0.039 -0.054
 -0.000  0.054  0.039  0.232  0.000
 -0.000  0.039 -0.054  0.000  0.232
atomic mag. moment =   3.66450
N of occupied +U levels =   36.916785
 --- exit write_ns ---

     negative rho (up, down):  1.235E-01 1.235E-01
 --- in v_hubbard ---
Hubbard energy    0.0543
 -------

     total cpu time spent up to now is     1166.6 secs

     total energy              =   -3194.98340359 Ry
     estimated scf accuracy    <       0.00009074 Ry

     total magnetization       =    -0.00 Bohr mag/cell
     absolute magnetization    =    27.32 Bohr mag/cell

     iteration #  5     ecut=    35.00 Ry     beta= 0.40
     CG style diagonalization
     ethr =  3.09E-08,  avg # of iterations =  3.0
 --- enter write_ns ---
 LDA+U parameters:
alpha( 3) =  0.02000000
alpha( 4) =  0.02000000
atom    1   Tr[ns(na)] (up, down, total) =   1.14318  4.96226  6.10543
   spin  1
    eigenvalues: 
  0.166  0.173  0.173  0.316  0.316
    eigenvectors:
  1.000  0.000  0.000  0.000  0.000
  0.000  0.080  0.307  0.025  0.587
  0.000  0.307  0.080  0.587  0.025
  0.000  0.166  0.447  0.205  0.183
  0.000  0.447  0.166  0.183  0.205
    occupations:
  0.166 -0.000 -0.000 -0.000 -0.000
 -0.000  0.261 -0.000  0.037  0.060
 -0.000 -0.000  0.261  0.060 -0.037
 -0.000  0.037  0.060  0.228  0.000
 -0.000  0.060 -0.037  0.000  0.228
   spin  2
    eigenvalues: 
  0.990  0.990  0.993  0.994  0.994
    eigenvectors:
  0.000  0.000  1.000  0.000  0.000
  0.042  0.299  0.000  0.047  0.613
  0.299  0.042  0.000  0.613  0.047
  0.224  0.435  0.000  0.145  0.196
  0.435  0.224  0.000  0.196  0.145
    occupations:
  0.993 -0.000 -0.000 -0.000 -0.000
 -0.000  0.993 -0.000 -0.001 -0.002
 -0.000 -0.000  0.993 -0.002  0.001
 -0.000 -0.001 -0.002  0.992  0.000
 -0.000 -0.002  0.001  0.000  0.992
atomic mag. moment =  -3.81908
atom    2   Tr[ns(na)] (up, down, total) =   1.24794  4.91435  6.16229
   spin  1
    eigenvalues: 
  0.178  0.192  0.192  0.343  0.343
    eigenvectors:
  1.000  0.000  0.000  0.000  0.000
  0.000  0.193  0.073  0.241  0.493
  0.000  0.073  0.193  0.493  0.241
  0.000  0.102  0.632  0.000  0.266
  0.000  0.632  0.102  0.266  0.000
    occupations:
  0.178 -0.000 -0.000 -0.000 -0.000
 -0.000  0.303 -0.000 -0.054  0.040
 -0.000 -0.000  0.303  0.040  0.054
 -0.000 -0.054  0.040  0.232  0.000
 -0.000  0.040  0.054  0.000  0.232
   spin  2
    eigenvalues: 
  0.969  0.969  0.991  0.992  0.992
    eigenvectors:
  0.000  0.000  1.000  0.000  0.000
  0.480  0.172  0.000  0.299  0.049
  0.172  0.480  0.000  0.049  0.299
  0.004  0.344  0.000  0.044  0.608
  0.344  0.004  0.000  0.608  0.044
    occupations:
  0.991 -0.000 -0.000 -0.000 -0.000
 -0.000  0.977 -0.000  0.007 -0.009
 -0.000 -0.000  0.977 -0.009 -0.007
 -0.000  0.007 -0.009  0.984  0.000
 -0.000 -0.009 -0.007  0.000  0.984
atomic mag. moment =  -3.66641
atom    3   Tr[ns(na)] (up, down, total) =   1.26688  4.91952  6.18640
   spin  1
    eigenvalues: 
  0.198  0.198  0.208  0.332  0.332
    eigenvectors:
  0.000  0.000  1.000  0.000  0.000
  0.362  0.240  0.000  0.294  0.104
  0.240  0.362  0.000  0.104  0.294
  0.024  0.375  0.000  0.088  0.513
  0.375  0.024  0.000  0.513  0.088
    occupations:
  0.208 -0.000 -0.000 -0.000 -0.000
 -0.000  0.251 -0.000 -0.053  0.039
 -0.000 -0.000  0.251  0.039  0.053
 -0.000 -0.053  0.039  0.278  0.000
 -0.000  0.039  0.053  0.000  0.278
   spin  2
    eigenvalues: 
  0.973  0.973  0.990  0.991  0.991
    eigenvectors:
  0.000  0.000  1.000  0.000  0.000
  0.456  0.088  0.000  0.340  0.115
  0.088  0.456  0.000  0.115  0.340
  0.044  0.411  0.000  0.022  0.522
  0.411  0.044  0.000  0.522  0.022
    occupations:
  0.990 -0.000 -0.000 -0.000 -0.000
 -0.000  0.981 -0.000  0.006 -0.007
 -0.000 -0.000  0.981 -0.007 -0.006
 -0.000  0.006 -0.007  0.983  0.000
 -0.000 -0.007 -0.006  0.000  0.983
atomic mag. moment =  -3.65264
atom    4   Tr[ns(na)] (up, down, total) =   4.91954  1.26625  6.18579
   spin  1
    eigenvalues: 
  0.973  0.973  0.990  0.991  0.991
    eigenvectors:
  0.000  0.000  1.000  0.000  0.000
  0.010  0.534  0.000  0.050  0.405
  0.534  0.010  0.000  0.405  0.050
  0.190  0.265  0.000  0.126  0.419
  0.265  0.190  0.000  0.419  0.126
    occupations:
  0.990 -0.000 -0.000 -0.000 -0.000
 -0.000  0.982 -0.000 -0.006 -0.007
 -0.000 -0.000  0.982 -0.007  0.006
 -0.000 -0.006 -0.007  0.983  0.000
 -0.000 -0.007  0.006  0.000  0.983
   spin  2
    eigenvalues: 
  0.198  0.198  0.208  0.332  0.332
    eigenvectors:
  0.000  0.000  1.000  0.000  0.000
  0.001  0.600  0.000  0.001  0.397
  0.600  0.001  0.000  0.397  0.001
  0.158  0.240  0.000  0.182  0.419
  0.240  0.158  0.000  0.419  0.182
    occupations:
  0.208 -0.000 -0.000 -0.000 -0.000
 -0.000  0.251 -0.000  0.053  0.039
 -0.000 -0.000  0.251  0.039 -0.053
 -0.000  0.053  0.039  0.278  0.000
 -0.000  0.039 -0.053  0.000  0.278
atomic mag. moment =   3.65328
atom    5   Tr[ns(na)] (up, down, total) =   4.96225  1.14409  6.10634
   spin  1
    eigenvalues: 
  0.990  0.990  0.993  0.994  0.994
    eigenvectors:
  0.000  0.000  1.000  0.000  0.000
  0.337  0.004  0.000  0.443  0.216
  0.004  0.337  0.000  0.216  0.443
  0.142  0.517  0.000  0.000  0.341
  0.517  0.142  0.000  0.341  0.000
    occupations:
  0.993 -0.000 -0.000 -0.000 -0.000
 -0.000  0.993 -0.000  0.001 -0.002
 -0.000 -0.000  0.993 -0.002 -0.001
 -0.000  0.001 -0.002  0.992  0.000
 -0.000 -0.002 -0.001  0.000  0.992
   spin  2
    eigenvalues: 
  0.166  0.173  0.173  0.316  0.316
    eigenvectors:
  1.000  0.000  0.000  0.000  0.000
  0.000  0.367  0.021  0.587  0.026
  0.000  0.021  0.367  0.026  0.587
  0.000  0.059  0.553  0.044  0.343
  0.000  0.553  0.059  0.343  0.044
    occupations:
  0.166 -0.000 -0.000 -0.000 -0.000
 -0.000  0.261 -0.000 -0.037  0.059
 -0.000 -0.000  0.261  0.059  0.037
 -0.000 -0.037  0.059  0.228  0.000
 -0.000  0.059  0.037  0.000  0.228
atomic mag. moment =   3.81816
atom    6   Tr[ns(na)] (up, down, total) =   4.91432  1.24872  6.16304
   spin  1
    eigenvalues: 
  0.969  0.969  0.991  0.992  0.992
    eigenvectors:
  0.000  0.000  1.000  0.000  0.000
  0.009  0.643  0.000  0.071  0.277
  0.643  0.009  0.000  0.277  0.071
  0.180  0.168  0.000  0.125  0.527
  0.168  0.180  0.000  0.527  0.125
    occupations:
  0.991 -0.000 -0.000 -0.000 -0.000
 -0.000  0.977 -0.000 -0.007 -0.009
 -0.000 -0.000  0.977 -0.009  0.007
 -0.000 -0.007 -0.009  0.984  0.000
 -0.000 -0.009  0.007  0.000  0.984
   spin  2
    eigenvalues: 
  0.178  0.192  0.192  0.343  0.343
    eigenvectors:
  1.000  0.000  0.000  0.000  0.000
  0.000  0.004  0.261  0.005  0.730
  0.000  0.261  0.004  0.730  0.005
  0.000  0.172  0.562  0.115  0.150
  0.000  0.562  0.172  0.150  0.115
    occupations:
  0.178 -0.000 -0.000 -0.000 -0.000
 -0.000  0.303 -0.000  0.054  0.040
 -0.000 -0.000  0.303  0.040 -0.054
 -0.000  0.054  0.040  0.232  0.000
 -0.000  0.040 -0.054  0.000  0.232
atomic mag. moment =   3.66560
N of occupied +U levels =   36.909298
 --- exit write_ns ---

     negative rho (up, down):  1.235E-01 1.235E-01
 --- in v_hubbard ---
Hubbard energy    0.0543
 -------

     total cpu time spent up to now is     1275.1 secs

     total energy              =   -3194.98341243 Ry
     estimated scf accuracy    <       0.00000810 Ry

     total magnetization       =    -0.00 Bohr mag/cell
     absolute magnetization    =    27.33 Bohr mag/cell

     iteration #  6     ecut=    35.00 Ry     beta= 0.40
     CG style diagonalization
     ethr =  2.75E-09,  avg # of iterations =  3.1
 --- enter write_ns ---
 LDA+U parameters:
alpha( 3) =  0.02000000
alpha( 4) =  0.02000000
atom    1   Tr[ns(na)] (up, down, total) =   1.14355  4.96228  6.10583
   spin  1
    eigenvalues: 
  0.166  0.173  0.173  0.316  0.316
    eigenvectors:
  1.000  0.000  0.000  0.000  0.000
  0.000  0.080  0.307  0.025  0.587
  0.000  0.307  0.080  0.587  0.025
  0.000  0.166  0.447  0.205  0.183
  0.000  0.447  0.166  0.183  0.205
    occupations:
  0.166 -0.000 -0.000 -0.000 -0.000
 -0.000  0.261 -0.000  0.037  0.059
 -0.000 -0.000  0.261  0.059 -0.037
 -0.000  0.037  0.059  0.228  0.000
 -0.000  0.059 -0.037  0.000  0.228
   spin  2
    eigenvalues: 
  0.990  0.990  0.993  0.994  0.994
    eigenvectors:
  0.000  0.000  1.000  0.000  0.000
  0.042  0.298  0.000  0.045  0.615
  0.298  0.042  0.000  0.615  0.045
  0.224  0.436  0.000  0.146  0.194
  0.436  0.224  0.000  0.194  0.146
    occupations:
  0.993 -0.000 -0.000 -0.000 -0.000
 -0.000  0.993 -0.000 -0.001 -0.002
 -0.000 -0.000  0.993 -0.002  0.001
 -0.000 -0.001 -0.002  0.992  0.000
 -0.000 -0.002  0.001  0.000  0.992
atomic mag. moment =  -3.81873
atom    2   Tr[ns(na)] (up, down, total) =   1.24913  4.91460  6.16373
   spin  1
    eigenvalues: 
  0.179  0.192  0.192  0.343  0.343
    eigenvectors:
  1.000  0.000  0.000  0.000  0.000
  0.000  0.193  0.073  0.240  0.495
  0.000  0.073  0.193  0.495  0.240
  0.000  0.102  0.632  0.000  0.265
  0.000  0.632  0.102  0.265  0.000
    occupations:
  0.179 -0.000 -0.000 -0.000 -0.000
 -0.000  0.303 -0.000 -0.054  0.040
 -0.000 -0.000  0.303  0.040  0.054
 -0.000 -0.054  0.040  0.232  0.000
 -0.000  0.040  0.054  0.000  0.232
   spin  2
    eigenvalues: 
  0.969  0.969  0.991  0.992  0.992
    eigenvectors:
  0.000  0.000  1.000  0.000  0.000
  0.480  0.172  0.000  0.299  0.049
  0.172  0.480  0.000  0.049  0.299
  0.004  0.344  0.000  0.044  0.608
  0.344  0.004  0.000  0.608  0.044
    occupations:
  0.991 -0.000 -0.000 -0.000 -0.000
 -0.000  0.977 -0.000  0.007 -0.009
 -0.000 -0.000  0.977 -0.009 -0.007
 -0.000  0.007 -0.009  0.984  0.000
 -0.000 -0.009 -0.007  0.000  0.984
atomic mag. moment =  -3.66548
atom    3   Tr[ns(na)] (up, down, total) =   1.26590  4.91937  6.18527
   spin  1
    eigenvalues: 
  0.198  0.198  0.207  0.332  0.332
    eigenvectors:
  0.000  0.000  1.000  0.000  0.000
  0.362  0.239  0.000  0.295  0.104
  0.239  0.362  0.000  0.104  0.295
  0.024  0.375  0.000  0.088  0.513
  0.375  0.024  0.000  0.513  0.088
    occupations:
  0.207 -0.000 -0.000 -0.000 -0.000
 -0.000  0.251 -0.000 -0.053  0.039
 -0.000 -0.000  0.251  0.039  0.053
 -0.000 -0.053  0.039  0.278  0.000
 -0.000  0.039  0.053  0.000  0.278
   spin  2
    eigenvalues: 
  0.973  0.973  0.990  0.991  0.991
    eigenvectors:
  0.000  0.000  1.000  0.000  0.000
  0.456  0.089  0.000  0.340  0.115
  0.089  0.456  0.000  0.115  0.340
  0.044  0.411  0.000  0.022  0.523
  0.411  0.044  0.000  0.523  0.022
    occupations:
  0.990 -0.000 -0.000 -0.000 -0.000
 -0.000  0.981 -0.000  0.006 -0.007
 -0.000 -0.000  0.981 -0.007 -0.006
 -0.000  0.006 -0.007  0.983  0.000
 -0.000 -0.007 -0.006  0.000  0.983
atomic mag. moment =  -3.65346
atom    4   Tr[ns(na)] (up, down, total) =   4.91932  1.26513  6.18445
   spin  1
    eigenvalues: 
  0.973  0.973  0.990  0.991  0.991
    eigenvectors:
  0.000  0.000  1.000  0.000  0.000
  0.010  0.535  0.000  0.050  0.405
  0.535  0.010  0.000  0.405  0.050
  0.190  0.265  0.000  0.126  0.419
  0.265  0.190  0.000  0.419  0.126
    occupations:
  0.990 -0.000 -0.000 -0.000 -0.000
 -0.000  0.981 -0.000 -0.006 -0.007
 -0.000 -0.000  0.981 -0.007  0.006
 -0.000 -0.006 -0.007  0.983  0.000
 -0.000 -0.007  0.006  0.000  0.983
   spin  2
    eigenvalues: 
  0.197  0.197  0.207  0.332  0.332
    eigenvectors:
  0.000  0.000  1.000  0.000  0.000
  0.001  0.600  0.000  0.001  0.398
  0.600  0.001  0.000  0.398  0.001
  0.159  0.241  0.000  0.183  0.418
  0.241  0.159  0.000  0.418  0.183
    occupations:
  0.207 -0.000 -0.000 -0.000 -0.000
 -0.000  0.251 -0.000  0.053  0.039
 -0.000 -0.000  0.251  0.039 -0.053
 -0.000  0.053  0.039  0.278  0.000
 -0.000  0.039 -0.053  0.000  0.278
atomic mag. moment =   3.65418
atom    5   Tr[ns(na)] (up, down, total) =   4.96227  1.14459  6.10686
   spin  1
    eigenvalues: 
  0.990  0.990  0.993  0.994  0.994
    eigenvectors:
  0.000  0.000  1.000  0.000  0.000
  0.336  0.004  0.000  0.442  0.217
  0.004  0.336  0.000  0.217  0.442
  0.142  0.518  0.000  0.000  0.340
  0.518  0.142  0.000  0.340  0.000
    occupations:
  0.993 -0.000 -0.000 -0.000 -0.000
 -0.000  0.993 -0.000  0.001 -0.002
 -0.000 -0.000  0.993 -0.002 -0.001
 -0.000  0.001 -0.002  0.992  0.000
 -0.000 -0.002 -0.001  0.000  0.992
   spin  2
    eigenvalues: 
  0.166  0.173  0.173  0.316  0.316
    eigenvectors:
  1.000  0.000  0.000  0.000  0.000
  0.000  0.366  0.021  0.587  0.026
  0.000  0.021  0.366  0.026  0.587
  0.000  0.059  0.553  0.044  0.343
  0.000  0.553  0.059  0.343  0.044
    occupations:
  0.166 -0.000 -0.000 -0.000 -0.000
 -0.000  0.261 -0.000 -0.037  0.059
 -0.000 -0.000  0.261  0.059  0.037
 -0.000 -0.037  0.059  0.228  0.000
 -0.000  0.059  0.037  0.000  0.228
atomic mag. moment =   3.81768
atom    6   Tr[ns(na)] (up, down, total) =   4.91450  1.24936  6.16386
   spin  1
    eigenvalues: 
  0.969  0.969  0.991  0.992  0.992
    eigenvectors:
  0.000  0.000  1.000  0.000  0.000
  0.009  0.643  0.000  0.071  0.277
  0.643  0.009  0.000  0.277  0.071
  0.180  0.168  0.000  0.124  0.528
  0.168  0.180  0.000  0.528  0.124
    occupations:
  0.991 -0.000 -0.000 -0.000 -0.000
 -0.000  0.977 -0.000 -0.007 -0.009
 -0.000 -0.000  0.977 -0.009  0.007
 -0.000 -0.007 -0.009  0.984  0.000
 -0.000 -0.009  0.007  0.000  0.984
   spin  2
    eigenvalues: 
  0.179  0.192  0.192  0.343  0.343
    eigenvectors:
  1.000  0.000  0.000  0.000  0.000
  0.000  0.004  0.261  0.005  0.730
  0.000  0.261  0.004  0.730  0.005
  0.000  0.172  0.562  0.115  0.150
  0.000  0.562  0.172  0.150  0.115
    occupations:
  0.179 -0.000 -0.000 -0.000 -0.000
 -0.000  0.303 -0.000  0.054  0.040
 -0.000 -0.000  0.303  0.040 -0.054
 -0.000  0.054  0.040  0.232  0.000
 -0.000  0.040 -0.054  0.000  0.232
atomic mag. moment =   3.66514
N of occupied +U levels =   36.910010
 --- exit write_ns ---

     negative rho (up, down):  1.235E-01 1.235E-01
 --- in v_hubbard ---
Hubbard energy    0.0543
 -------

     total cpu time spent up to now is     1386.7 secs

     total energy              =   -3194.98341307 Ry
     estimated scf accuracy    <       0.00000483 Ry

     total magnetization       =    -0.00 Bohr mag/cell
     absolute magnetization    =    27.33 Bohr mag/cell

     iteration #  7     ecut=    35.00 Ry     beta= 0.40
     CG style diagonalization
     ethr =  1.64E-09,  avg # of iterations =  3.0
 --- enter write_ns ---
 LDA+U parameters:
alpha( 3) =  0.02000000
alpha( 4) =  0.02000000
atom    1   Tr[ns(na)] (up, down, total) =   1.14343  4.96228  6.10571
   spin  1
    eigenvalues: 
  0.166  0.173  0.173  0.316  0.316
    eigenvectors:
  1.000  0.000  0.000  0.000  0.000
  0.000  0.080  0.307  0.026  0.587
  0.000  0.307  0.080  0.587  0.026
  0.000  0.166  0.447  0.205  0.183
  0.000  0.447  0.166  0.183  0.205
    occupations:
  0.166 -0.000 -0.000 -0.000 -0.000
 -0.000  0.261 -0.000  0.037  0.060
 -0.000 -0.000  0.261  0.060 -0.037
 -0.000  0.037  0.060  0.228  0.000
 -0.000  0.060 -0.037  0.000  0.228
   spin  2
    eigenvalues: 
  0.990  0.990  0.993  0.994  0.994
    eigenvectors:
  0.000  0.000  1.000  0.000  0.000
  0.042  0.298  0.000  0.046  0.614
  0.298  0.042  0.000  0.614  0.046
  0.224  0.436  0.000  0.146  0.194
  0.436  0.224  0.000  0.194  0.146
    occupations:
  0.993 -0.000 -0.000 -0.000 -0.000
 -0.000  0.993 -0.000 -0.001 -0.002
 -0.000 -0.000  0.993 -0.002  0.001
 -0.000 -0.001 -0.002  0.992  0.000
 -0.000 -0.002  0.001  0.000  0.992
atomic mag. moment =  -3.81886
atom    2   Tr[ns(na)] (up, down, total) =   1.24851  4.91445  6.16296
   spin  1
    eigenvalues: 
  0.179  0.192  0.192  0.343  0.343
    eigenvectors:
  1.000  0.000  0.000  0.000  0.000
  0.000  0.193  0.073  0.241  0.493
  0.000  0.073  0.193  0.493  0.241
  0.000  0.102  0.632  0.000  0.266
  0.000  0.632  0.102  0.266  0.000
    occupations:
  0.179 -0.000 -0.000 -0.000 -0.000
 -0.000  0.303 -0.000 -0.054  0.040
 -0.000 -0.000  0.303  0.040  0.054
 -0.000 -0.054  0.040  0.232  0.000
 -0.000  0.040  0.054  0.000  0.232
   spin  2
    eigenvalues: 
  0.969  0.969  0.991  0.992  0.992
    eigenvectors:
  0.000  0.000  1.000  0.000  0.000
  0.481  0.171  0.000  0.299  0.049
  0.171  0.481  0.000  0.049  0.299
  0.004  0.344  0.000  0.044  0.608
  0.344  0.004  0.000  0.608  0.044
    occupations:
  0.991 -0.000 -0.000 -0.000 -0.000
 -0.000  0.977 -0.000  0.007 -0.009
 -0.000 -0.000  0.977 -0.009 -0.007
 -0.000  0.007 -0.009  0.984  0.000
 -0.000 -0.009 -0.007  0.000  0.984
atomic mag. moment =  -3.66594
atom    3   Tr[ns(na)] (up, down, total) =   1.26696  4.91957  6.18652
   spin  1
    eigenvalues: 
  0.198  0.198  0.208  0.332  0.332
    eigenvectors:
  0.000  0.000  1.000  0.000  0.000
  0.361  0.240  0.000  0.294  0.104
  0.240  0.361  0.000  0.104  0.294
  0.023  0.375  0.000  0.088  0.513
  0.375  0.023  0.000  0.513  0.088
    occupations:
  0.208 -0.000 -0.000 -0.000 -0.000
 -0.000  0.251 -0.000 -0.053  0.039
 -0.000 -0.000  0.251  0.039  0.053
 -0.000 -0.053  0.039  0.278  0.000
 -0.000  0.039  0.053  0.000  0.278
   spin  2
    eigenvalues: 
  0.973  0.973  0.990  0.991  0.991
    eigenvectors:
  0.000  0.000  1.000  0.000  0.000
  0.456  0.088  0.000  0.341  0.115
  0.088  0.456  0.000  0.115  0.341
  0.044  0.411  0.000  0.022  0.522
  0.411  0.044  0.000  0.522  0.022
    occupations:
  0.990 -0.000 -0.000 -0.000 -0.000
 -0.000  0.982 -0.000  0.006 -0.007
 -0.000 -0.000  0.982 -0.007 -0.006
 -0.000  0.006 -0.007  0.983  0.000
 -0.000 -0.007 -0.006  0.000  0.983
atomic mag. moment =  -3.65261
atom    4   Tr[ns(na)] (up, down, total) =   4.91947  1.26601  6.18549
   spin  1
    eigenvalues: 
  0.973  0.973  0.990  0.991  0.991
    eigenvectors:
  0.000  0.000  1.000  0.000  0.000
  0.010  0.534  0.000  0.050  0.405
  0.534  0.010  0.000  0.405  0.050
  0.190  0.265  0.000  0.126  0.418
  0.265  0.190  0.000  0.418  0.126
    occupations:
  0.990 -0.000 -0.000 -0.000 -0.000
 -0.000  0.981 -0.000 -0.006 -0.007
 -0.000 -0.000  0.981 -0.007  0.006
 -0.000 -0.006 -0.007  0.983  0.000
 -0.000 -0.007  0.006  0.000  0.983
   spin  2
    eigenvalues: 
  0.198  0.198  0.207  0.332  0.332
    eigenvectors:
  0.000  0.000  1.000  0.000  0.000
  0.001  0.600  0.000  0.001  0.397
  0.600  0.001  0.000  0.397  0.001
  0.158  0.241  0.000  0.182  0.419
  0.241  0.158  0.000  0.419  0.182
    occupations:
  0.207 -0.000 -0.000 -0.000 -0.000
 -0.000  0.251 -0.000  0.053  0.039
 -0.000 -0.000  0.251  0.039 -0.053
 -0.000  0.053  0.039  0.278  0.000
 -0.000  0.039 -0.053  0.000  0.278
atomic mag. moment =   3.65346
atom    5   Tr[ns(na)] (up, down, total) =   4.96227  1.14464  6.10692
   spin  1
    eigenvalues: 
  0.990  0.990  0.993  0.994  0.994
    eigenvectors:
  0.000  0.000  1.000  0.000  0.000
  0.337  0.004  0.000  0.442  0.217
  0.004  0.337  0.000  0.217  0.442
  0.142  0.517  0.000  0.000  0.341
  0.517  0.142  0.000  0.341  0.000
    occupations:
  0.993 -0.000 -0.000 -0.000 -0.000
 -0.000  0.993 -0.000  0.001 -0.002
 -0.000 -0.000  0.993 -0.002 -0.001
 -0.000  0.001 -0.002  0.992  0.000
 -0.000 -0.002 -0.001  0.000  0.992
   spin  2
    eigenvalues: 
  0.166  0.173  0.173  0.316  0.316
    eigenvectors:
  1.000  0.000  0.000  0.000  0.000
  0.000  0.367  0.021  0.586  0.026
  0.000  0.021  0.367  0.026  0.586
  0.000  0.060  0.553  0.044  0.344
  0.000  0.553  0.060  0.344  0.044
    occupations:
  0.166 -0.000 -0.000 -0.000 -0.000
 -0.000  0.261 -0.000 -0.037  0.059
 -0.000 -0.000  0.261  0.059  0.037
 -0.000 -0.037  0.059  0.228  0.000
 -0.000  0.059  0.037  0.000  0.228
atomic mag. moment =   3.81763
atom    6   Tr[ns(na)] (up, down, total) =   4.91431  1.24863  6.16294
   spin  1
    eigenvalues: 
  0.969  0.969  0.991  0.992  0.992
    eigenvectors:
  0.000  0.000  1.000  0.000  0.000
  0.009  0.643  0.000  0.071  0.277
  0.643  0.009  0.000  0.277  0.071
  0.180  0.168  0.000  0.125  0.527
  0.168  0.180  0.000  0.527  0.125
    occupations:
  0.991 -0.000 -0.000 -0.000 -0.000
 -0.000  0.977 -0.000 -0.007 -0.009
 -0.000 -0.000  0.977 -0.009  0.007
 -0.000 -0.007 -0.009  0.984  0.000
 -0.000 -0.009  0.007  0.000  0.984
   spin  2
    eigenvalues: 
  0.178  0.192  0.192  0.343  0.343
    eigenvectors:
  1.000  0.000  0.000  0.000  0.000
  0.000  0.005  0.261  0.005  0.730
  0.000  0.261  0.005  0.730  0.005
  0.000  0.172  0.562  0.115  0.151
  0.000  0.562  0.172  0.151  0.115
    occupations:
  0.178 -0.000 -0.000 -0.000 -0.000
 -0.000  0.303 -0.000  0.054  0.040
 -0.000 -0.000  0.303  0.040 -0.054
 -0.000  0.054  0.040  0.232  0.000
 -0.000  0.040 -0.054  0.000  0.232
atomic mag. moment =   3.66568
N of occupied +U levels =   36.910539
 --- exit write_ns ---

     negative rho (up, down):  1.235E-01 1.235E-01
 --- in v_hubbard ---
Hubbard energy    0.0543
 -------

     total cpu time spent up to now is     1498.1 secs

     total energy              =   -3194.98341331 Ry
     estimated scf accuracy    <       0.00000412 Ry

     total magnetization       =    -0.00 Bohr mag/cell
     absolute magnetization    =    27.33 Bohr mag/cell

     iteration #  8     ecut=    35.00 Ry     beta= 0.40
     CG style diagonalization
     ethr =  1.40E-09,  avg # of iterations =  3.0
 --- enter write_ns ---
 LDA+U parameters:
alpha( 3) =  0.02000000
alpha( 4) =  0.02000000
atom    1   Tr[ns(na)] (up, down, total) =   1.14412  4.96229  6.10641
   spin  1
    eigenvalues: 
  0.166  0.173  0.173  0.316  0.316
    eigenvectors:
  1.000  0.000  0.000  0.000  0.000
  0.000  0.080  0.307  0.025  0.587
  0.000  0.307  0.080  0.587  0.025
  0.000  0.166  0.447  0.205  0.182
  0.000  0.447  0.166  0.182  0.205
    occupations:
  0.166 -0.000 -0.000 -0.000 -0.000
 -0.000  0.261 -0.000  0.037  0.059
 -0.000 -0.000  0.261  0.059 -0.037
 -0.000  0.037  0.059  0.228  0.000
 -0.000  0.059 -0.037  0.000  0.228
   spin  2
    eigenvalues: 
  0.990  0.990  0.993  0.994  0.994
    eigenvectors:
  0.000  0.000  1.000  0.000  0.000
  0.042  0.298  0.000  0.046  0.614
  0.298  0.042  0.000  0.614  0.046
  0.224  0.436  0.000  0.145  0.195
  0.436  0.224  0.000  0.195  0.145
    occupations:
  0.993 -0.000 -0.000 -0.000 -0.000
 -0.000  0.993 -0.000 -0.001 -0.002
 -0.000 -0.000  0.993 -0.002  0.001
 -0.000 -0.001 -0.002  0.992  0.000
 -0.000 -0.002  0.001  0.000  0.992
atomic mag. moment =  -3.81817
atom    2   Tr[ns(na)] (up, down, total) =   1.24879  4.91449  6.16328
   spin  1
    eigenvalues: 
  0.179  0.192  0.192  0.343  0.343
    eigenvectors:
  1.000  0.000  0.000  0.000  0.000
  0.000  0.193  0.073  0.241  0.493
  0.000  0.073  0.193  0.493  0.241
  0.000  0.102  0.632  0.000  0.265
  0.000  0.632  0.102  0.265  0.000
    occupations:
  0.179 -0.000 -0.000 -0.000 -0.000
 -0.000  0.303 -0.000 -0.054  0.040
 -0.000 -0.000  0.303  0.040  0.054
 -0.000 -0.054  0.040  0.232  0.000
 -0.000  0.040  0.054  0.000  0.232
   spin  2
    eigenvalues: 
  0.969  0.969  0.991  0.992  0.992
    eigenvectors:
  0.000  0.000  1.000  0.000  0.000
  0.480  0.172  0.000  0.299  0.050
  0.172  0.480  0.000  0.050  0.299
  0.004  0.344  0.000  0.044  0.608
  0.344  0.004  0.000  0.608  0.044
    occupations:
  0.991 -0.000 -0.000 -0.000 -0.000
 -0.000  0.977 -0.000  0.007 -0.009
 -0.000 -0.000  0.977 -0.009 -0.007
 -0.000  0.007 -0.009  0.984  0.000
 -0.000 -0.009 -0.007  0.000  0.984
atomic mag. moment =  -3.66569
atom    3   Tr[ns(na)] (up, down, total) =   1.26614  4.91943  6.18557
   spin  1
    eigenvalues: 
  0.198  0.198  0.207  0.332  0.332
    eigenvectors:
  0.000  0.000  1.000  0.000  0.000
  0.362  0.239  0.000  0.295  0.104
  0.239  0.362  0.000  0.104  0.295
  0.024  0.375  0.000  0.088  0.513
  0.375  0.024  0.000  0.513  0.088
    occupations:
  0.207 -0.000 -0.000 -0.000 -0.000
 -0.000  0.251 -0.000 -0.053  0.039
 -0.000 -0.000  0.251  0.039  0.053
 -0.000 -0.053  0.039  0.278  0.000
 -0.000  0.039  0.053  0.000  0.278
   spin  2
    eigenvalues: 
  0.973  0.973  0.990  0.991  0.991
    eigenvectors:
  0.000  0.000  1.000  0.000  0.000
  0.457  0.088  0.000  0.340  0.115
  0.088  0.457  0.000  0.115  0.340
  0.044  0.411  0.000  0.023  0.522
  0.411  0.044  0.000  0.522  0.023
    occupations:
  0.990 -0.000 -0.000 -0.000 -0.000
 -0.000  0.981 -0.000  0.006 -0.007
 -0.000 -0.000  0.981 -0.007 -0.006
 -0.000  0.006 -0.007  0.983  0.000
 -0.000 -0.007 -0.006  0.000  0.983
atomic mag. moment =  -3.65329
atom    4   Tr[ns(na)] (up, down, total) =   4.91947  1.26598  6.18544
   spin  1
    eigenvalues: 
  0.973  0.973  0.990  0.991  0.991
    eigenvectors:
  0.000  0.000  1.000  0.000  0.000
  0.010  0.534  0.000  0.050  0.405
  0.534  0.010  0.000  0.405  0.050
  0.190  0.265  0.000  0.126  0.419
  0.265  0.190  0.000  0.419  0.126
    occupations:
  0.990 -0.000 -0.000 -0.000 -0.000
 -0.000  0.981 -0.000 -0.006 -0.007
 -0.000 -0.000  0.981 -0.007  0.006
 -0.000 -0.006 -0.007  0.983  0.000
 -0.000 -0.007  0.006  0.000  0.983
   spin  2
    eigenvalues: 
  0.198  0.198  0.207  0.332  0.332
    eigenvectors:
  0.000  0.000  1.000  0.000  0.000
  0.001  0.600  0.000  0.001  0.398
  0.600  0.001  0.000  0.398  0.001
  0.158  0.241  0.000  0.183  0.418
  0.241  0.158  0.000  0.418  0.183
    occupations:
  0.207 -0.000 -0.000 -0.000 -0.000
 -0.000  0.251 -0.000  0.053  0.039
 -0.000 -0.000  0.251  0.039 -0.053
 -0.000  0.053  0.039  0.278  0.000
 -0.000  0.039 -0.053  0.000  0.278
atomic mag. moment =   3.65349
atom    5   Tr[ns(na)] (up, down, total) =   4.96227  1.14379  6.10606
   spin  1
    eigenvalues: 
  0.990  0.990  0.993  0.994  0.994
    eigenvectors:
  0.000  0.000  1.000  0.000  0.000
  0.337  0.004  0.000  0.443  0.217
  0.004  0.337  0.000  0.217  0.443
  0.143  0.517  0.000  0.000  0.340
  0.517  0.143  0.000  0.340  0.000
    occupations:
  0.993 -0.000 -0.000 -0.000 -0.000
 -0.000  0.993 -0.000  0.001 -0.002
 -0.000 -0.000  0.993 -0.002 -0.001
 -0.000  0.001 -0.002  0.992  0.000
 -0.000 -0.002 -0.001  0.000  0.992
   spin  2
    eigenvalues: 
  0.166  0.173  0.173  0.316  0.316
    eigenvectors:
  1.000  0.000  0.000  0.000  0.000
  0.000  0.366  0.021  0.586  0.027
  0.000  0.021  0.366  0.027  0.586
  0.000  0.059  0.553  0.043  0.344
  0.000  0.553  0.059  0.344  0.043
    occupations:
  0.166 -0.000 -0.000 -0.000 -0.000
 -0.000  0.261 -0.000 -0.037  0.059
 -0.000 -0.000  0.261  0.059  0.037
 -0.000 -0.037  0.059  0.228  0.000
 -0.000  0.059  0.037  0.000  0.228
atomic mag. moment =   3.81847
atom    6   Tr[ns(na)] (up, down, total) =   4.91451  1.24916  6.16367
   spin  1
    eigenvalues: 
  0.969  0.969  0.991  0.992  0.992
    eigenvectors:
  0.000  0.000  1.000  0.000  0.000
  0.009  0.643  0.000  0.071  0.277
  0.643  0.009  0.000  0.277  0.071
  0.180  0.168  0.000  0.124  0.527
  0.168  0.180  0.000  0.527  0.124
    occupations:
  0.991 -0.000 -0.000 -0.000 -0.000
 -0.000  0.977 -0.000 -0.007 -0.009
 -0.000 -0.000  0.977 -0.009  0.007
 -0.000 -0.007 -0.009  0.984  0.000
 -0.000 -0.009  0.007  0.000  0.984
   spin  2
    eigenvalues: 
  0.179  0.192  0.192  0.343  0.343
    eigenvectors:
  1.000  0.000  0.000  0.000  0.000
  0.000  0.005  0.261  0.005  0.730
  0.000  0.261  0.005  0.730  0.005
  0.000  0.171  0.563  0.115  0.150
  0.000  0.563  0.171  0.150  0.115
    occupations:
  0.179 -0.000 -0.000 -0.000 -0.000
 -0.000  0.303 -0.000  0.054  0.040
 -0.000 -0.000  0.303  0.040 -0.054
 -0.000  0.054  0.040  0.232  0.000
 -0.000  0.040 -0.054  0.000  0.232
atomic mag. moment =   3.66535
N of occupied +U levels =   36.910436
 --- exit write_ns ---

     negative rho (up, down):  1.235E-01 1.235E-01
 --- in v_hubbard ---
Hubbard energy    0.0543
 -------

     total cpu time spent up to now is     1606.2 secs

     total energy              =   -3194.98341357 Ry
     estimated scf accuracy    <       0.00000229 Ry

     total magnetization       =    -0.00 Bohr mag/cell
     absolute magnetization    =    27.33 Bohr mag/cell

     iteration #  9     ecut=    35.00 Ry     beta= 0.40
     CG style diagonalization
     ethr =  7.80E-10,  avg # of iterations =  3.0
 --- enter write_ns ---
 LDA+U parameters:
alpha( 3) =  0.02000000
alpha( 4) =  0.02000000
atom    1   Tr[ns(na)] (up, down, total) =   1.14429  4.96233  6.10662
   spin  1
    eigenvalues: 
  0.166  0.173  0.173  0.316  0.316
    eigenvectors:
  1.000  0.000  0.000  0.000  0.000
  0.000  0.080  0.307  0.026  0.587
  0.000  0.307  0.080  0.587  0.026
  0.000  0.166  0.447  0.205  0.183
  0.000  0.447  0.166  0.183  0.205
    occupations:
  0.166 -0.000 -0.000 -0.000 -0.000
 -0.000  0.261 -0.000  0.037  0.059
 -0.000 -0.000  0.261  0.059 -0.037
 -0.000  0.037  0.059  0.228  0.000
 -0.000  0.059 -0.037  0.000  0.228
   spin  2
    eigenvalues: 
  0.990  0.990  0.993  0.994  0.994
    eigenvectors:
  0.000  0.000  1.000  0.000  0.000
  0.042  0.298  0.000  0.046  0.614
  0.298  0.042  0.000  0.614  0.046
  0.224  0.436  0.000  0.145  0.194
  0.436  0.224  0.000  0.194  0.145
    occupations:
  0.993 -0.000 -0.000 -0.000 -0.000
 -0.000  0.993 -0.000 -0.001 -0.002
 -0.000 -0.000  0.993 -0.002  0.001
 -0.000 -0.001 -0.002  0.992  0.000
 -0.000 -0.002  0.001  0.000  0.992
atomic mag. moment =  -3.81803
atom    2   Tr[ns(na)] (up, down, total) =   1.24875  4.91451  6.16326
   spin  1
    eigenvalues: 
  0.179  0.192  0.192  0.343  0.343
    eigenvectors:
  1.000  0.000  0.000  0.000  0.000
  0.000  0.193  0.073  0.240  0.495
  0.000  0.073  0.193  0.495  0.240
  0.000  0.103  0.632  0.000  0.266
  0.000  0.632  0.103  0.266  0.000
    occupations:
  0.179 -0.000 -0.000 -0.000 -0.000
 -0.000  0.303 -0.000 -0.054  0.040
 -0.000 -0.000  0.303  0.040  0.054
 -0.000 -0.054  0.040  0.232  0.000
 -0.000  0.040  0.054  0.000  0.232
   spin  2
    eigenvalues: 
  0.969  0.969  0.991  0.992  0.992
    eigenvectors:
  0.000  0.000  1.000  0.000  0.000
  0.480  0.172  0.000  0.299  0.049
  0.172  0.480  0.000  0.049  0.299
  0.004  0.344  0.000  0.044  0.608
  0.344  0.004  0.000  0.608  0.044
    occupations:
  0.991 -0.000 -0.000 -0.000 -0.000
 -0.000  0.977 -0.000  0.007 -0.009
 -0.000 -0.000  0.977 -0.009 -0.007
 -0.000  0.007 -0.009  0.984  0.000
 -0.000 -0.009 -0.007  0.000  0.984
atomic mag. moment =  -3.66576
atom    3   Tr[ns(na)] (up, down, total) =   1.26605  4.91949  6.18553
   spin  1
    eigenvalues: 
  0.198  0.198  0.207  0.332  0.332
    eigenvectors:
  0.000  0.000  1.000  0.000  0.000
  0.362  0.239  0.000  0.295  0.104
  0.239  0.362  0.000  0.104  0.295
  0.024  0.375  0.000  0.088  0.513
  0.375  0.024  0.000  0.513  0.088
    occupations:
  0.207 -0.000 -0.000 -0.000 -0.000
 -0.000  0.251 -0.000 -0.053  0.039
 -0.000 -0.000  0.251  0.039  0.053
 -0.000 -0.053  0.039  0.278  0.000
 -0.000  0.039  0.053  0.000  0.278
   spin  2
    eigenvalues: 
  0.973  0.973  0.990  0.991  0.991
    eigenvectors:
  0.000  0.000  1.000  0.000  0.000
  0.456  0.089  0.000  0.340  0.115
  0.089  0.456  0.000  0.115  0.340
  0.044  0.411  0.000  0.022  0.522
  0.411  0.044  0.000  0.522  0.022
    occupations:
  0.990 -0.000 -0.000 -0.000 -0.000
 -0.000  0.981 -0.000  0.006 -0.007
 -0.000 -0.000  0.981 -0.007 -0.006
 -0.000  0.006 -0.007  0.983  0.000
 -0.000 -0.007 -0.006  0.000  0.983
atomic mag. moment =  -3.65344
atom    4   Tr[ns(na)] (up, down, total) =   4.91952  1.26607  6.18559
   spin  1
    eigenvalues: 
  0.973  0.973  0.990  0.991  0.991
    eigenvectors:
  0.000  0.000  1.000  0.000  0.000
  0.010  0.534  0.000  0.050  0.405
  0.534  0.010  0.000  0.405  0.050
  0.190  0.266  0.000  0.126  0.419
  0.266  0.190  0.000  0.419  0.126
[...]
     atom:   29    charge:    5.2916    magn:    0.2039    constr:    0.0000
     atom:   30    charge:    5.2916    magn:    0.2039    constr:    0.0000

     total cpu time spent up to now is     1935.8 secs

     End of self-consistent calculation

 ------ SPIN UP ------------


          k = 0.0000 0.0000 0.0000 (  8497 PWs)   bands (ev):

   -78.5040 -78.1977 -78.0744 -73.5005 -73.4172 -73.3226 -44.5235 -44.4680
   -44.4680 -44.1906 -44.1906 -44.1802 -44.1769 -44.0149 -44.0149 -39.6515
   -39.6074 -39.6074 -39.5590 -39.5295 -39.5295 -39.4999 -39.4277 -39.4276
   -10.7195 -10.7195 -10.6961 -10.6961 -10.6814 -10.6687 -10.6522 -10.6522
   -10.6369 -10.6369 -10.6296 -10.6296 -10.6083 -10.6083 -10.5829 -10.5726
   -10.5616 -10.5616 -10.5525 -10.5525 -10.5361 -10.5360 -10.5305 -10.5234
   -10.5233 -10.5192 -10.4985 -10.4985 -10.4872 -10.4872  -7.3865  -6.9972
    -6.8625  -6.0472  -5.9664  -5.5974  -5.5972  -5.4980  -5.4980  -5.4317
    -5.4317  -5.4050  -5.3064  -5.3063  -5.1052  -5.1052  -4.9492  -4.9491
     1.5777   1.6939   1.7247   2.4151   2.5389   3.3167   5.4074   5.4074
     5.4808   5.9425   5.9426   6.0193   6.0678   6.0678   6.2413   6.3035
     6.3035   6.5145   6.5475   6.5481   6.5481   6.7010   6.7011   6.8654
     6.8654   6.9976   7.1266   7.2570   7.2571   7.6415   7.6415   7.6679
     7.8198   8.1772   8.1772   8.4061   8.5142   8.5142   8.6891   8.6891
     8.9141   9.0970   9.0970   9.1502   9.2577   9.2578   9.3273   9.4366
     9.4367   9.4449   9.5564   9.5564   9.7168   9.7169  10.0209  10.0209
    10.0667  10.0668  10.0877  10.1318  10.1318  10.4965  10.4966  10.6354
    10.8438  10.9801  11.0590  11.0590  11.1497  11.1766  11.2892  11.8938
    11.8939  12.6425  12.6426  12.9351  12.9351  13.1122  13.1932  13.2024
    13.2024  13.2325  13.3749  13.3749  14.2396  14.2397  14.9898  14.9898
    15.5095  15.6260  15.6260  15.7224  15.7827  15.9108  17.1320  17.1320
    17.1567  17.1568  17.2571  17.2571  17.5375  17.6023  17.6722  17.6722
    17.7297  17.7297  18.1448  18.1448  19.5755  20.5887  21.1274  21.2545
    21.5320  21.5320  22.0589  22.1971  22.5661  22.5661  22.6496  22.6496
    22.7693  22.7693  23.9865  23.9865  24.0540  24.0540  24.1607  24.3877

     occupation numbers 
     1.0000   1.0000   1.0000   1.0000   1.0000   1.0000   1.0000   1.0000
     1.0000   1.0000   1.0000   1.0000   1.0000   1.0000   1.0000   1.0000
     1.0000   1.0000   1.0000   1.0000   1.0000   1.0000   1.0000   1.0000
     1.0000   1.0000   1.0000   1.0000   1.0000   1.0000   1.0000   1.0000
     1.0000   1.0000   1.0000   1.0000   1.0000   1.0000   1.0000   1.0000
     1.0000   1.0000   1.0000   1.0000   1.0000   1.0000   1.0000   1.0000
     1.0000   1.0000   1.0000   1.0000   1.0000   1.0000   1.0000   1.0000
     1.0000   1.0000   1.0000   1.0000   1.0000   1.0000   1.0000   1.0000
     1.0000   1.0000   1.0000   1.0000   1.0000   1.0000   1.0000   1.0000
     1.0000   1.0000   1.0000   1.0000   1.0000   1.0000   1.0000   1.0000
     1.0000   1.0000   1.0000   1.0000   1.0000   1.0000   1.0000   1.0000
     1.0000   1.0000   1.0000   1.0000   1.0000   1.0000   1.0000   1.0000
     1.0000   1.0000   1.0000   1.0000   1.0000   1.0000   1.0000   1.0000
     1.0000   1.0000   1.0000   1.0000   1.0000   1.0000   1.0000   1.0000
     1.0000   1.0000   1.0000   1.0000   1.0000   1.0000   1.0000   1.0000
     1.0000   1.0000   1.0000   1.0000   1.0000   1.0000   1.0000   1.0000
     1.0000   1.0000   1.0000   1.0000   1.0000   1.0000   1.0000   1.0000
     1.0000   1.0000   1.0000   1.0000   1.0000   1.0000   1.0000   1.0000
     1.0000   1.0325   1.0325  -0.0298  -0.0298  -0.0022  -0.0001  -0.0001
    -0.0001  -0.0000  -0.0000  -0.0000  -0.0000  -0.0000  -0.0000  -0.0000
    -0.0000  -0.0000  -0.0000  -0.0000  -0.0000  -0.0000  -0.0000  -0.0000
    -0.0000  -0.0000  -0.0000  -0.0000  -0.0000  -0.0000  -0.0000  -0.0000
    -0.0000  -0.0000  -0.0000  -0.0000  -0.0000  -0.0000  -0.0000  -0.0000
    -0.0000  -0.0000  -0.0000  -0.0000  -0.0000  -0.0000  -0.0000  -0.0000
    -0.0000  -0.0000  -0.0000  -0.0000  -0.0000  -0.0000  -0.0000  -0.0000

          k = 0.0000-0.5774 0.0000 (  8560 PWs)   bands (ev):

   -78.5040 -78.1977 -78.0744 -73.5005 -73.4172 -73.3226 -44.5234 -44.4681
   -44.4681 -44.1907 -44.1907 -44.1802 -44.1768 -44.0150 -44.0149 -39.6515
   -39.6075 -39.6074 -39.5589 -39.5296 -39.5295 -39.4999 -39.4277 -39.4277
   -10.7160 -10.6966 -10.6843 -10.6793 -10.6737 -10.6672 -10.6503 -10.6351
   -10.6299 -10.6249 -10.6168 -10.6154 -10.6110 -10.6076 -10.5813 -10.5720
   -10.5664 -10.5617 -10.5549 -10.5538 -10.5512 -10.5438 -10.5394 -10.5277
   -10.5267 -10.5163 -10.5144 -10.5044 -10.5017 -10.4903  -6.6773  -6.6448
    -6.4816  -6.2783  -6.2308  -5.8897  -5.8053  -5.7460  -5.6291  -5.5617
    -5.4993  -5.4782  -5.4014  -5.3344  -5.2113  -5.1537  -5.0494  -4.9738
     1.5131   1.7676   1.8105   2.0646   2.1404   2.3135   5.5799   5.8587
     5.8800   6.0231   6.2064   6.2552   6.3316   6.3731   6.3964   6.5733
     6.6135   6.6773   6.7998   6.8462   7.0871   7.1147   7.1893   7.3059
     7.3515   7.4811   7.5668   7.6059   7.7466   7.8504   7.8705   7.9836
     8.0381   8.1845   8.2238   8.3415   8.3596   8.3765   8.5038   8.5686
     8.7264   8.8004   8.8874   9.0003   9.0413   9.1223   9.1562   9.2398
     9.2694   9.3694   9.4398   9.5335   9.6429   9.7423   9.8232   9.8478
     9.8712   9.9588   9.9896  10.0981  10.1706  10.2633  10.3024  10.5180
    10.7029  10.7788  10.9931  11.0753  11.1768  11.3584  11.5421  11.8445
    11.8744  11.9447  12.5666  12.9094  13.0363  13.1117  13.1920  13.2315
    13.3167  13.3590  13.5224  13.6391  14.2528  14.2963  14.5038  14.7841
    14.8338  15.2052  15.3951  15.6884  15.7565  15.8734  15.9551  16.0131
    16.1163  16.1620  16.2510  16.9812  17.1360  17.2608  17.3300  17.4013
    17.4804  17.5422  17.6259  17.7015  21.3582  21.5649  21.8567  22.2639
    22.4385  22.5407  22.9126  22.9740  23.0504  23.1963  23.3136  23.3451
    23.4260  23.4614  23.9388  23.9662  24.1528  24.1829  24.3212  24.4362

     occupation numbers 
     1.0000   1.0000   1.0000   1.0000   1.0000   1.0000   1.0000   1.0000
     1.0000   1.0000   1.0000   1.0000   1.0000   1.0000   1.0000   1.0000
     1.0000   1.0000   1.0000   1.0000   1.0000   1.0000   1.0000   1.0000
     1.0000   1.0000   1.0000   1.0000   1.0000   1.0000   1.0000   1.0000
     1.0000   1.0000   1.0000   1.0000   1.0000   1.0000   1.0000   1.0000
     1.0000   1.0000   1.0000   1.0000   1.0000   1.0000   1.0000   1.0000
     1.0000   1.0000   1.0000   1.0000   1.0000   1.0000   1.0000   1.0000
     1.0000   1.0000   1.0000   1.0000   1.0000   1.0000   1.0000   1.0000
     1.0000   1.0000   1.0000   1.0000   1.0000   1.0000   1.0000   1.0000
     1.0000   1.0000   1.0000   1.0000   1.0000   1.0000   1.0000   1.0000
     1.0000   1.0000   1.0000   1.0000   1.0000   1.0000   1.0000   1.0000
     1.0000   1.0000   1.0000   1.0000   1.0000   1.0000   1.0000   1.0000
     1.0000   1.0000   1.0000   1.0000   1.0000   1.0000   1.0000   1.0000
     1.0000   1.0000   1.0000   1.0000   1.0000   1.0000   1.0000   1.0000
     1.0000   1.0000   1.0000   1.0000   1.0000   1.0000   1.0000   1.0000
     1.0000   1.0000   1.0000   1.0000   1.0000   1.0000   1.0000   1.0000
     1.0000   1.0000   1.0000   1.0000   1.0000   1.0000   1.0000   1.0000
     1.0000   1.0000   1.0000   1.0000   1.0000   1.0000   1.0000   1.0000
     1.0000   1.0000   1.0205  -0.0046  -0.0146  -0.0022  -0.0001  -0.0000
    -0.0000  -0.0000  -0.0000  -0.0000  -0.0000  -0.0000  -0.0000  -0.0000
    -0.0000  -0.0000  -0.0000  -0.0000  -0.0000  -0.0000  -0.0000  -0.0000
    -0.0000  -0.0000  -0.0000  -0.0000  -0.0000  -0.0000  -0.0000  -0.0000
    -0.0000  -0.0000  -0.0000  -0.0000  -0.0000  -0.0000  -0.0000  -0.0000
    -0.0000  -0.0000  -0.0000  -0.0000  -0.0000  -0.0000  -0.0000  -0.0000
    -0.0000  -0.0000  -0.0000  -0.0000  -0.0000  -0.0000  -0.0000  -0.0000

 ------ SPIN DOWN ----------


          k = 0.0000 0.0000 0.0000 (  8497 PWs)   bands (ev):

   -78.5040 -78.1982 -78.0738 -73.5005 -73.4166 -73.3232 -44.5235 -44.4679
   -44.4679 -44.1911 -44.1911 -44.1796 -44.1774 -44.0143 -44.0143 -39.6515
   -39.6074 -39.6074 -39.5584 -39.5290 -39.5289 -39.5006 -39.4283 -39.4283
   -10.7193 -10.7193 -10.6963 -10.6963 -10.6810 -10.6691 -10.6521 -10.6521
   -10.6369 -10.6369 -10.6299 -10.6299 -10.6082 -10.6081 -10.5832 -10.5722
   -10.5616 -10.5616 -10.5525 -10.5525 -10.5362 -10.5361 -10.5308 -10.5232
   -10.5232 -10.5189 -10.4987 -10.4987 -10.4870 -10.4870  -7.3866  -6.9972
    -6.8625  -6.0471  -5.9664  -5.5971  -5.5969  -5.4982  -5.4981  -5.4318
    -5.4318  -5.4051  -5.3068  -5.3067  -5.1053  -5.1052  -4.9489  -4.9488
     1.5778   1.6938   1.7247   2.4152   2.5389   3.3167   5.4073   5.4073
     5.4807   5.9424   5.9425   6.0193   6.0679   6.0679   6.2413   6.3034
     6.3034   6.5144   6.5473   6.5480   6.5480   6.7006   6.7007   6.8658
     6.8659   6.9976   7.1268   7.2572   7.2572   7.6414   7.6415   7.6680
     7.8202   8.1772   8.1773   8.4061   8.5141   8.5142   8.6891   8.6891
     8.9140   9.0969   9.0970   9.1502   9.2578   9.2578   9.3273   9.4367
     9.4368   9.4448   9.5565   9.5566   9.7169   9.7170  10.0210  10.0210
    10.0668  10.0669  10.0879  10.1318  10.1319  10.4966  10.4966  10.6359
    10.8436  10.9800  11.0593  11.0593  11.1496  11.1766  11.2892  11.8942
    11.8942  12.6428  12.6428  12.9350  12.9350  13.1121  13.1932  13.2025
    13.2025  13.2323  13.3745  13.3745  14.2394  14.2394  14.9895  14.9895
    15.5095  15.6257  15.6257  15.7219  15.7829  15.9108  17.1321  17.1322
    17.1571  17.1572  17.2566  17.2567  17.5375  17.6023  17.6722  17.6722
    17.7297  17.7297  18.1447  18.1447  19.5762  20.5886  21.1278  21.2540
    21.5322  21.5322  22.0588  22.1969  22.5663  22.5663  22.6497  22.6497
    22.7691  22.7692  23.9864  23.9864  24.0540  24.0541  24.1606  24.3890

     occupation numbers 
     1.0000   1.0000   1.0000   1.0000   1.0000   1.0000   1.0000   1.0000
     1.0000   1.0000   1.0000   1.0000   1.0000   1.0000   1.0000   1.0000
     1.0000   1.0000   1.0000   1.0000   1.0000   1.0000   1.0000   1.0000
     1.0000   1.0000   1.0000   1.0000   1.0000   1.0000   1.0000   1.0000
     1.0000   1.0000   1.0000   1.0000   1.0000   1.0000   1.0000   1.0000
     1.0000   1.0000   1.0000   1.0000   1.0000   1.0000   1.0000   1.0000
     1.0000   1.0000   1.0000   1.0000   1.0000   1.0000   1.0000   1.0000
     1.0000   1.0000   1.0000   1.0000   1.0000   1.0000   1.0000   1.0000
     1.0000   1.0000   1.0000   1.0000   1.0000   1.0000   1.0000   1.0000
     1.0000   1.0000   1.0000   1.0000   1.0000   1.0000   1.0000   1.0000
     1.0000   1.0000   1.0000   1.0000   1.0000   1.0000   1.0000   1.0000
     1.0000   1.0000   1.0000   1.0000   1.0000   1.0000   1.0000   1.0000
     1.0000   1.0000   1.0000   1.0000   1.0000   1.0000   1.0000   1.0000
     1.0000   1.0000   1.0000   1.0000   1.0000   1.0000   1.0000   1.0000
     1.0000   1.0000   1.0000   1.0000   1.0000   1.0000   1.0000   1.0000
     1.0000   1.0000   1.0000   1.0000   1.0000   1.0000   1.0000   1.0000
     1.0000   1.0000   1.0000   1.0000   1.0000   1.0000   1.0000   1.0000
     1.0000   1.0000   1.0000   1.0000   1.0000   1.0000   1.0000   1.0000
     1.0000   1.0324   1.0324  -0.0297  -0.0297  -0.0022  -0.0001  -0.0001
    -0.0001  -0.0000  -0.0000  -0.0000  -0.0000  -0.0000  -0.0000  -0.0000
    -0.0000  -0.0000  -0.0000  -0.0000  -0.0000  -0.0000  -0.0000  -0.0000
    -0.0000  -0.0000  -0.0000  -0.0000  -0.0000  -0.0000  -0.0000  -0.0000
    -0.0000  -0.0000  -0.0000  -0.0000  -0.0000  -0.0000  -0.0000  -0.0000
    -0.0000  -0.0000  -0.0000  -0.0000  -0.0000  -0.0000  -0.0000  -0.0000
    -0.0000  -0.0000  -0.0000  -0.0000  -0.0000  -0.0000  -0.0000  -0.0000

          k = 0.0000-0.5774 0.0000 (  8560 PWs)   bands (ev):

   -78.5040 -78.1982 -78.0738 -73.5005 -73.4166 -73.3232 -44.5234 -44.4680
   -44.4679 -44.1912 -44.1912 -44.1796 -44.1773 -44.0144 -44.0143 -39.6514
   -39.6074 -39.6074 -39.5584 -39.5290 -39.5290 -39.5005 -39.4284 -39.4284
   -10.7158 -10.6968 -10.6838 -10.6789 -10.6742 -10.6676 -10.6502 -10.6348
   -10.6299 -10.6252 -10.6171 -10.6157 -10.6106 -10.6074 -10.5817 -10.5715
   -10.5665 -10.5617 -10.5549 -10.5536 -10.5516 -10.5436 -10.5395 -10.5277
   -10.5267 -10.5161 -10.5146 -10.5041 -10.5018 -10.4902  -6.6772  -6.6450
    -6.4816  -6.2783  -6.2307  -5.8896  -5.8053  -5.7460  -5.6292  -5.5616
    -5.4993  -5.4782  -5.4018  -5.3347  -5.2112  -5.1538  -5.0493  -4.9736
     1.5131   1.7675   1.8106   2.0647   2.1402   2.3136   5.5797   5.8582
     5.8801   6.0229   6.2062   6.2551   6.3318   6.3732   6.3965   6.5733
     6.6133   6.6774   6.7999   6.8459   7.0872   7.1147   7.1893   7.3059
     7.3517   7.4809   7.5668   7.6059   7.7466   7.8506   7.8707   7.9835
     8.0380   8.1846   8.2239   8.3414   8.3594   8.3767   8.5039   8.5688
     8.7263   8.8005   8.8873   9.0002   9.0414   9.1224   9.1562   9.2399
     9.2694   9.3695   9.4396   9.5335   9.6428   9.7422   9.8232   9.8477
     9.8714   9.9589   9.9896  10.0984  10.1707  10.2637  10.3027  10.5180
    10.7032  10.7790  10.9931  11.0754  11.1768  11.3587  11.5423  11.8448
    11.8746  11.9451  12.5668  12.9093  13.0361  13.1116  13.1921  13.2316
    13.3165  13.3588  13.5222  13.6386  14.2527  14.2961  14.5036  14.7838
    14.8335  15.2051  15.3951  15.6885  15.7569  15.8731  15.9549  16.0128
    16.1165  16.1618  16.2510  16.9812  17.1360  17.2608  17.3300  17.4013
    17.4805  17.5419  17.6257  17.7018  21.3593  21.5657  21.8571  22.2636
    22.4382  22.5400  22.9124  22.9740  23.0504  23.1969  23.3138  23.3448
    23.4257  23.4612  23.9390  23.9665  24.1531  24.1827  24.3214  24.4360

     occupation numbers 
     1.0000   1.0000   1.0000   1.0000   1.0000   1.0000   1.0000   1.0000
     1.0000   1.0000   1.0000   1.0000   1.0000   1.0000   1.0000   1.0000
     1.0000   1.0000   1.0000   1.0000   1.0000   1.0000   1.0000   1.0000
     1.0000   1.0000   1.0000   1.0000   1.0000   1.0000   1.0000   1.0000
     1.0000   1.0000   1.0000   1.0000   1.0000   1.0000   1.0000   1.0000
     1.0000   1.0000   1.0000   1.0000   1.0000   1.0000   1.0000   1.0000
     1.0000   1.0000   1.0000   1.0000   1.0000   1.0000   1.0000   1.0000
     1.0000   1.0000   1.0000   1.0000   1.0000   1.0000   1.0000   1.0000
     1.0000   1.0000   1.0000   1.0000   1.0000   1.0000   1.0000   1.0000
     1.0000   1.0000   1.0000   1.0000   1.0000   1.0000   1.0000   1.0000
     1.0000   1.0000   1.0000   1.0000   1.0000   1.0000   1.0000   1.0000
     1.0000   1.0000   1.0000   1.0000   1.0000   1.0000   1.0000   1.0000
     1.0000   1.0000   1.0000   1.0000   1.0000   1.0000   1.0000   1.0000
     1.0000   1.0000   1.0000   1.0000   1.0000   1.0000   1.0000   1.0000
     1.0000   1.0000   1.0000   1.0000   1.0000   1.0000   1.0000   1.0000
     1.0000   1.0000   1.0000   1.0000   1.0000   1.0000   1.0000   1.0000
     1.0000   1.0000   1.0000   1.0000   1.0000   1.0000   1.0000   1.0000
     1.0000   1.0000   1.0000   1.0000   1.0000   1.0000   1.0000   1.0000
     1.0000   1.0000   1.0206  -0.0045  -0.0146  -0.0022  -0.0001  -0.0000
    -0.0000  -0.0000  -0.0000  -0.0000  -0.0000  -0.0000  -0.0000  -0.0000
    -0.0000  -0.0000  -0.0000  -0.0000  -0.0000  -0.0000  -0.0000  -0.0000
    -0.0000  -0.0000  -0.0000  -0.0000  -0.0000  -0.0000  -0.0000  -0.0000
    -0.0000  -0.0000  -0.0000  -0.0000  -0.0000  -0.0000  -0.0000  -0.0000
    -0.0000  -0.0000  -0.0000  -0.0000  -0.0000  -0.0000  -0.0000  -0.0000
    -0.0000  -0.0000  -0.0000  -0.0000  -0.0000  -0.0000  -0.0000  -0.0000

     the Fermi energy is    12.7918 ev

!    total energy              =   -3194.98341382 Ry
     estimated scf accuracy    <       0.00000006 Ry
     smearing contrib. (-TS)   =       0.00285072 Ry
     internal energy E=F+TS    =   -3194.98626455 Ry

     The total energy is F=E-TS. E is the sum of the following terms:
     one-electron contribution =   -1267.19219697 Ry
     hartree contribution      =     826.28172597 Ry
     xc contribution           =    -695.64872374 Ry
     ewald contribution        =   -2058.48132819 Ry
     Hubbard energy            =       0.05425838 Ry

     total magnetization       =    -0.00 Bohr mag/cell
     absolute magnetization    =    27.33 Bohr mag/cell

     convergence has been achieved in  11 iterations

     Writing output data file /home/aldair1809/Documentos/QE/4BFO/hubbard_pbe_mp/lr_0.02/bifeo3-Uhubbard.save/

     init_run     :     14.28s CPU     15.55s WALL (       1 calls)
     electrons    :   1882.10s CPU   1919.48s WALL (       1 calls)

     Called by init_run:
     wfcinit      :     11.55s CPU     12.38s WALL (       1 calls)
     potinit      :      0.15s CPU      0.28s WALL (       1 calls)
     hinit0       :      1.27s CPU      1.29s WALL (       1 calls)

     Called by electrons:
     c_bands      :   1769.70s CPU   1800.01s WALL (      11 calls)
     sum_band     :    100.08s CPU    104.32s WALL (      11 calls)
     v_of_rho     :      1.88s CPU      1.97s WALL (      12 calls)
     v_h          :      0.05s CPU      0.06s WALL (      12 calls)
     v_xc         :      1.83s CPU      1.90s WALL (      12 calls)
     newd         :     10.98s CPU     13.90s WALL (      12 calls)
     mix_rho      :      0.34s CPU      0.35s WALL (      11 calls)

     Called by c_bands:
     init_us_2    :      1.35s CPU      1.37s WALL (      92 calls)
     ccgdiagg     :   1471.58s CPU   1497.82s WALL (      48 calls)
     wfcrot       :    296.95s CPU    300.98s WALL (      44 calls)

     Called by sum_band:
     sum_band:wei :      0.03s CPU      0.03s WALL (      11 calls)
     sum_band:loo :     79.30s CPU     80.86s WALL (      11 calls)
     sum_band:buf :      0.23s CPU      0.23s WALL (      44 calls)
     sum_band:ini :      0.66s CPU      0.66s WALL (      44 calls)
     sum_band:cal :     59.13s CPU     59.39s WALL (      44 calls)
     sum_band:bec :      0.30s CPU      0.30s WALL (      44 calls)
     addusdens    :     15.78s CPU     18.43s WALL (      11 calls)
     addusd:skk   :      0.06s CPU      0.07s WALL (      44 calls)
     addusd:dgemm :      8.29s CPU     10.46s WALL (      88 calls)
     addusd:qvan2 :      7.25s CPU      7.28s WALL (      88 calls)

     Called by *cgdiagg:
     h_psi        :    783.98s CPU    802.48s WALL (   33219 calls)
     s_psi        :    539.32s CPU    544.25s WALL (   66398 calls)

     Called by h_psi:
     h_psi:calbec :    277.19s CPU    282.27s WALL (   33219 calls)
     vloc_psi     :    163.93s CPU    173.52s WALL (   33219 calls)
     add_vuspsi   :    296.91s CPU    299.69s WALL (   33219 calls)
     vhpsi        :     44.41s CPU     45.57s WALL (   33219 calls)
     hs_1psi      :    859.64s CPU    877.52s WALL (   33175 calls)
     s_1psi       :    456.83s CPU    462.49s WALL (   33175 calls)

     General routines
     calbec       :    589.46s CPU    599.28s WALL (   99705 calls)
     fft          :      0.88s CPU      0.96s WALL (     250 calls)
     ffts         :      0.10s CPU      0.10s WALL (      22 calls)
     fftw         :    155.96s CPU    165.88s WALL (   92750 calls)
     davcio       :      0.00s CPU      0.12s WALL (       4 calls)

     Parallel routines
     fft_scatt_xy :     27.26s CPU     29.47s WALL (   93022 calls)
     fft_scatt_yz :     27.44s CPU     30.90s WALL (   93022 calls)

     Hubbard U routines
     new_ns       :      4.02s CPU      4.03s WALL (      11 calls)
     new_ns       :      4.02s CPU      4.03s WALL (      11 calls)
     vhpsi        :     44.41s CPU     45.57s WALL (   33219 calls)

     PWSCF        :  31m37.50s CPU  32m16.81s WALL


   This run was terminated on:  22:50:43  26Oct2024            

=------------------------------------------------------------------------------=
   JOB DONE.
=------------------------------------------------------------------------------=
