
     Program PWSCF v.6.7MaX starts on 26Oct2024 at 22:50:44 

     This program is part of the open-source Quantum ESPRESSO suite
     for quantum simulation of materials; please cite
         "P. Giannozzi et al., J. Phys.:Condens. Matter 21 395502 (2009);
         "P. Giannozzi et al., J. Phys.:Condens. Matter 29 465901 (2017);
          URL http://www.quantum-espresso.org", 
     in publications or presentations arising from this work. More details at
     http://www.quantum-espresso.org/quote

     Parallel version (MPI), running on     4 processors

     MPI processes distributed on     1 nodes
     R & G space division:  proc/nbgrp/npool/nimage =       4
     Waiting for input...
     Reading input from standard input

     Current dimensions of program PWSCF are:
     Max number of different atomic species (ntypx) = 10
     Max number of k-points (npk) =  40000
     Max angular momentum in pseudopotentials (lmaxx) =  3

     Subspace diagonalization in iterative solution of the eigenvalue problem:
     one sub-group per band group will be used
     scalapack distributed-memory algorithm (size of sub-group:  2*  2 procs)


     Parallelization info
     --------------------
     sticks:   dense  smooth     PW     G-vecs:    dense   smooth      PW
     Min         261     261     74                17069    17069    2544
     Max         262     262     76                17072    17072    2546
     Sum        1045    1045    301                68281    68281   10179



     bravais-lattice index     =            4
     lattice parameter (alat)  =      10.4531  a.u.
     unit-cell volume          =    2440.6662 (a.u.)^3
     number of atoms/cell      =           30
     number of atomic types    =            4
     number of electrons       =       294.00
     number of Kohn-Sham states=          200
     kinetic-energy cutoff     =      35.0000  Ry
     charge density cutoff     =     140.0000  Ry
     scf convergence threshold =      1.0E-07
     mixing beta               =       0.4000
     number of iterations used =            8  plain     mixing
     Exchange-correlation=  SLA  PW   PBX  PBC
                           (   1   4   3   4   0   0   0)

     celldm(1)=  10.453102  celldm(2)=   0.000000  celldm(3)=   2.467415
     celldm(4)=   0.000000  celldm(5)=   0.000000  celldm(6)=   0.000000

     crystal axes: (cart. coord. in units of alat)
               a(1) = (   1.000000   0.000000   0.000000 )  
               a(2) = (  -0.500000   0.866025   0.000000 )  
               a(3) = (   0.000000   0.000000   2.467415 )  

     reciprocal axes: (cart. coord. in units 2 pi/alat)
               b(1) = (  1.000000  0.577350 -0.000000 )  
               b(2) = (  0.000000  1.154701  0.000000 )  
               b(3) = (  0.000000 -0.000000  0.405282 )  


     PseudoPot. # 1 for O  read from file:
     /home/aldair1809/Programas/QE/q-e-qe-7.3/pseudo/o_pbe_v1.2.uspp.F.UPF
     MD5 check sum: 734c27235a0248c51dbae37a1fbe46ec
     Pseudo is Ultrasoft + core correction, Zval =  6.0
     Generated by new atomic code, or converted to UPF format
     Using radial grid of  737 points,  5 beta functions with: 
                l(1) =   0
                l(2) =   0
                l(3) =   1
                l(4) =   1
                l(5) =   2
     Q(r) pseudized with  8 coefficients,  rinner =    0.900   0.900   0.900
                                                       0.900   0.900

     PseudoPot. # 2 for Bi read from file:
     /home/aldair1809/Programas/QE/q-e-qe-7.3/pseudo/bi_pbe_v1.uspp.F.UPF
     MD5 check sum: cceb9f28ec65b6d7ff33140f5b0b1758
     Pseudo is Ultrasoft + core correction, Zval = 15.0
     Generated by new atomic code, or converted to UPF format
     Using radial grid of  899 points,  6 beta functions with: 
                l(1) =   0
                l(2) =   0
                l(3) =   1
                l(4) =   1
                l(5) =   2
                l(6) =   2
     Q(r) pseudized with  6 coefficients,  rinner =    1.000   1.000   1.000
                                                       1.000   1.000

     PseudoPot. # 3 for Fe read from file:
     /home/aldair1809/Programas/QE/q-e-qe-7.3/pseudo/fe_pbe_v1.5.uspp.F.UPF
     MD5 check sum: a130daea23fe5165f5d574ae7f82ed95
     Pseudo is Ultrasoft + core correction, Zval = 16.0
     Generated by new atomic code, or converted to UPF format
     Using radial grid of  861 points,  6 beta functions with: 
                l(1) =   0
                l(2) =   0
                l(3) =   1
                l(4) =   1
                l(5) =   2
                l(6) =   2
     Q(r) pseudized with  8 coefficients,  rinner =    1.000   1.000   1.000
                                                       1.000   1.000

     PseudoPot. # 4 for Fe read from file:
     /home/aldair1809/Programas/QE/q-e-qe-7.3/pseudo/fe_pbe_v1.5.uspp.F.UPF
     MD5 check sum: a130daea23fe5165f5d574ae7f82ed95
     Pseudo is Ultrasoft + core correction, Zval = 16.0
     Generated by new atomic code, or converted to UPF format
     Using radial grid of  861 points,  6 beta functions with: 
                l(1) =   0
                l(2) =   0
                l(3) =   1
                l(4) =   1
                l(5) =   2
                l(6) =   2
     Q(r) pseudized with  8 coefficients,  rinner =    1.000   1.000   1.000
                                                       1.000   1.000

     atomic species   valence    mass     pseudopotential
        O              6.00    15.99940     O ( 1.00)
        Bi            15.00   208.98040     Bi( 1.00)
        Fe1           16.00    55.84500     Fe( 1.00)
        Fe2           16.00    55.84500     Fe( 1.00)

     Starting magnetic structure 
     atomic species   magnetization
        O            0.000
        Bi           0.000
        Fe1         -0.800
        Fe2          0.800


     Simplified LDA+U calculation (l_max = 2) with parameters (eV):
     atomic species    L          U    alpha       J0     beta
        Fe1            2     0.0000   0.0500   0.0000   0.0000
        Fe2            2     0.0000   0.0500   0.0000   0.0000



      3 Sym. Ops. (no inversion) found


                                    s                        frac. trans.

      isym =  1     identity                                     

 cryst.   s( 1) = (     1          0          0      )
                  (     0          1          0      )
                  (     0          0          1      )

 cart.    s( 1) = (  1.0000000  0.0000000  0.0000000 )
                  (  0.0000000  1.0000000  0.0000000 )
                  (  0.0000000  0.0000000  1.0000000 )


      isym =  2     120 deg rotation - cryst. axis [0,0,1]       

 cryst.   s( 2) = (     0          1          0      )
                  (    -1         -1          0      )
                  (     0          0          1      )

 cart.    s( 2) = ( -0.5000000 -0.8660254  0.0000000 )
                  (  0.8660254 -0.5000000  0.0000000 )
                  (  0.0000000  0.0000000  1.0000000 )


      isym =  3     120 deg rotation - cryst. axis [0,0,-1]      

 cryst.   s( 3) = (    -1         -1          0      )
                  (     1          0          0      )
                  (     0          0          1      )

 cart.    s( 3) = ( -0.5000000  0.8660254  0.0000000 )
                  ( -0.8660254 -0.5000000  0.0000000 )
                  (  0.0000000  0.0000000  1.0000000 )


     point group C_3 (3)    
     there are  3 classes
     the character table:

       E     C3    C3^2 
A      1.00  1.00  1.00
E      1.00 -0.50 -0.50
E*     1.00 -0.50 -0.50
     imaginary part
A      0.00  0.00  0.00
E      0.00  0.87 -0.87
E*     0.00 -0.87  0.87

     the symmetry operations in each class and the name of the first element:

     E        1
          identity                                               
     C3       2
          120 deg rotation - cryst. axis [0,0,1]                 
     C3^2     3
          120 deg rotation - cryst. axis [0,0,-1]                

   Cartesian axes

     site n.     atom                  positions (alat units)
         1           Fe1 tau(   1) = (   0.0000000   0.0000000   1.9173194  )
         2           Fe1 tau(   2) = (  -0.0000005   0.5773506   2.3408318  )
         3           Fe1 tau(   3) = (   0.5000005   0.2886748   1.4987656  )
         4           Fe2 tau(   4) = (   0.5000005   0.2886748   0.2650306  )
         5           Fe2 tau(   5) = (   0.0000000   0.0000000   0.6836385  )
         6           Fe2 tau(   6) = (  -0.0000005   0.5773506   1.1071829  )
         7           Bi  tau(   7) = (   0.5000005   0.2886748   2.0704508  )
         8           Bi  tau(   8) = (  -0.0000005   0.5773506   1.6683657  )
         9           Bi  tau(   9) = (  -0.0000005   0.5773506   0.4345959  )
        10           Bi  tau(  10) = (   0.0000000   0.0000000   0.0112133  )
        11           Bi  tau(  11) = (   0.0000000   0.0000000   1.2449306  )
        12           Bi  tau(  12) = (   0.5000005   0.2886748   0.8366940  )
        13           O   tau(  13) = (  -0.3015234   0.6617768   2.1713309  )
        14           O   tau(  14) = (   0.0776467   0.2740092   2.1713309  )
        15           O   tau(  15) = (   0.2238783   0.7962639   2.1713309  )
        16           O   tau(  16) = (   0.4195843   0.5622547   1.7587968  )
        17           O   tau(  17) = (   0.3032805   0.0822442   1.7587968  )
        18           O   tau(  18) = (   0.7771337   0.2215274   1.7587968  )
        19           O   tau(  19) = (   0.6967279   0.0822438   0.5250654  )
        20           O   tau(  20) = (   0.5804103   0.5622631   0.5250654  )
        21           O   tau(  21) = (   0.2228602   0.2215194   0.5250654  )
        22           O   tau(  22) = (  -0.0757596   0.8510068   0.1130324  )
        23           O   tau(  23) = (  -0.1991137   0.3749123   0.1130324  )
        24           O   tau(  24) = (   0.2748733   0.5061317   0.1130324  )
        25           O   tau(  25) = (   0.1991050   0.3749017   1.3467955  )
        26           O   tau(  26) = (   0.0757731   0.8510045   1.3467955  )
        27           O   tau(  27) = (  -0.2748781   0.5061446   1.3467955  )
        28           O   tau(  28) = (  -0.0776631   0.2740052   0.9376559  )
        29           O   tau(  29) = (   0.3015366   0.6617637   0.9376559  )
        30           O   tau(  30) = (  -0.2238720   0.7962811   0.9376559  )

   Crystallographic axes

     site n.     atom                  positions (cryst. coord.)
         1           Fe1 tau(   1) = (  0.0000000  0.0000000  0.7770559  )
         2           Fe1 tau(   2) = (  0.3333330  0.6666670  0.9486980  )
         3           Fe1 tau(   3) = (  0.6666670  0.3333330  0.6074234  )
         4           Fe2 tau(   4) = (  0.6666670  0.3333330  0.1074122  )
         5           Fe2 tau(   5) = (  0.0000000  0.0000000  0.2770667  )
         6           Fe2 tau(   6) = (  0.3333330  0.6666670  0.4487218  )
         7           Bi  tau(   7) = (  0.6666670  0.3333330  0.8391174  )
         8           Bi  tau(   8) = (  0.3333330  0.6666670  0.6761593  )
         9           Bi  tau(   9) = (  0.3333330  0.6666670  0.1761341  )
        10           Bi  tau(  10) = (  0.0000000  0.0000000  0.0045446  )
        11           Bi  tau(  11) = (  0.0000000  0.0000000  0.5045485  )
        12           Bi  tau(  12) = (  0.6666670  0.3333330  0.3390974  )
        13           O   tau(  13) = (  0.0805536  0.7641541  0.8800023  )
        14           O   tau(  14) = (  0.2358459  0.3163985  0.8800023  )
        15           O   tau(  15) = (  0.6836015  0.9194464  0.8800023  )
        16           O   tau(  16) = (  0.7442022  0.6492358  0.7128095  )
        17           O   tau(  17) = (  0.3507642  0.0949674  0.7128095  )
        18           O   tau(  18) = (  0.9050326  0.2557978  0.7128095  )
        19           O   tau(  19) = (  0.7442114  0.0949669  0.2127998  )
        20           O   tau(  20) = (  0.9050331  0.6492455  0.2127998  )
        21           O   tau(  21) = (  0.3507545  0.2557886  0.2127998  )
        22           O   tau(  22) = (  0.4155694  0.9826580  0.0458101  )
        23           O   tau(  23) = (  0.0173420  0.4329115  0.0458101  )
        24           O   tau(  24) = (  0.5670885  0.5844306  0.0458101  )
        25           O   tau(  25) = (  0.4155546  0.4328992  0.5458326  )
        26           O   tau(  26) = (  0.5671008  0.9826554  0.5458326  )
        27           O   tau(  27) = (  0.0173446  0.5844454  0.5458326  )
        28           O   tau(  28) = (  0.0805338  0.3163939  0.3800155  )
        29           O   tau(  29) = (  0.6836061  0.7641389  0.3800155  )
        30           O   tau(  30) = (  0.2358611  0.9194662  0.3800155  )

     number of k points=     2  Methfessel-Paxton smearing, width (Ry)=  0.0100
                       cart. coord. in units 2pi/alat
        k(    1) = (   0.0000000   0.0000000   0.0000000), wk =   0.2500000
        k(    2) = (   0.0000000  -0.5773503   0.0000000), wk =   0.7500000

                       cryst. coord.
        k(    1) = (   0.0000000   0.0000000   0.0000000), wk =   0.2500000
        k(    2) = (   0.0000000  -0.5000000   0.0000000), wk =   0.7500000

     Dense  grid:    68281 G-vectors     FFT dimensions: (  40,  40, 100)

     Dynamical RAM for                 wfc:       6.51 MB

     Dynamical RAM for     wfc (w. buffer):      32.55 MB

     Dynamical RAM for             U proj.:       0.98 MB

     Dynamical RAM for  U proj. (w. buff.):       4.88 MB

     Dynamical RAM for           str. fact:       1.04 MB

     Dynamical RAM for           local pot:       0.00 MB

     Dynamical RAM for          nlocal pot:      14.65 MB

     Dynamical RAM for                qrad:       3.80 MB

     Dynamical RAM for          rho,v,vnew:       3.39 MB

     Dynamical RAM for               rhoin:       1.13 MB

     Dynamical RAM for            rho*nmix:       8.34 MB

     Dynamical RAM for           G-vectors:       1.11 MB

     Dynamical RAM for          h,s,v(r/c):       0.46 MB

     Dynamical RAM for          <psi|beta>:       1.37 MB

     Dynamical RAM for      wfcinit/wfcrot:      13.94 MB

     Dynamical RAM for           addusdens:      53.40 MB

     Estimated static dynamical RAM per process >      74.02 MB

     Estimated max dynamical RAM per process >     127.42 MB

     Estimated total dynamical RAM >     509.70 MB

     Atomic positions and unit cell read from directory:
     /home/aldair1809/Documentos/QE/4BFO/hubbard_pbe_mp/lr_0.05/bifeo3-Uhubbard.save/


     Check: negative core charge=   -0.000081
     Generating pointlists ...
     new r_m :   0.1435 (alat units)  1.5003 (a.u.) for type    1
     new r_m :   0.1728 (alat units)  1.8065 (a.u.) for type    2
     new r_m :   0.1435 (alat units)  1.5003 (a.u.) for type    3
     new r_m :   0.1435 (alat units)  1.5003 (a.u.) for type    4

     The initial density is read from file :
     /home/aldair1809/Documentos/QE/4BFO/hubbard_pbe_mp/lr_0.05/bifeo3-Uhubbard.save/charge-density


     negative rho (up, down):  1.235E-01 1.235E-01
 --- in v_hubbard ---
Hubbard energy    0.1357
 -------
     Number of +U iterations with fixed ns =  0
     Starting occupations:
 --- enter write_ns ---
 LDA+U parameters:
alpha( 3) =  0.05000000
alpha( 4) =  0.05000000
atom    1   Tr[ns(na)] (up, down, total) =   1.14843  4.96207  6.11051
   spin  1
    eigenvalues: 
  0.167  0.174  0.174  0.317  0.317
    eigenvectors:
  1.000  0.000  0.000  0.000  0.000
  0.000  0.081  0.306  0.026  0.587
  0.000  0.306  0.081  0.587  0.026
  0.000  0.165  0.448  0.205  0.182
  0.000  0.448  0.165  0.182  0.205
    occupations:
  0.167 -0.000 -0.000 -0.000 -0.000
 -0.000  0.261 -0.000  0.036  0.059
 -0.000 -0.000  0.261  0.059 -0.036
 -0.000  0.036  0.059  0.229  0.000
 -0.000  0.059 -0.036  0.000  0.229
   spin  2
    eigenvalues: 
  0.990  0.990  0.993  0.994  0.994
    eigenvectors:
  0.000  0.000  1.000  0.000  0.000
  0.040  0.302  0.000  0.045  0.613
  0.302  0.040  0.000  0.613  0.045
  0.223  0.434  0.000  0.145  0.198
  0.434  0.223  0.000  0.198  0.145
    occupations:
  0.993 -0.000 -0.000 -0.000 -0.000
 -0.000  0.993 -0.000 -0.001 -0.002
 -0.000 -0.000  0.993 -0.002  0.001
 -0.000 -0.001 -0.002  0.992  0.000
 -0.000 -0.002  0.001  0.000  0.992
atomic mag. moment =  -3.81364
atom    2   Tr[ns(na)] (up, down, total) =   1.25263  4.91386  6.16649
   spin  1
    eigenvalues: 
  0.179  0.193  0.193  0.344  0.344
    eigenvectors:
  1.000  0.000  0.000  0.000  0.000
  0.000  0.191  0.073  0.239  0.497
  0.000  0.073  0.191  0.497  0.239
  0.000  0.103  0.632  0.000  0.264
  0.000  0.632  0.103  0.264  0.000
    occupations:
  0.179 -0.000 -0.000 -0.000 -0.000
 -0.000  0.304 -0.000 -0.054  0.039
 -0.000 -0.000  0.304  0.039  0.054
 -0.000 -0.054  0.039  0.233  0.000
 -0.000  0.039  0.054  0.000  0.233
   spin  2
    eigenvalues: 
  0.969  0.969  0.991  0.992  0.992
    eigenvectors:
  0.000  0.000  1.000  0.000  0.000
  0.478  0.173  0.000  0.299  0.049
  0.173  0.478  0.000  0.049  0.299
  0.004  0.344  0.000  0.044  0.608
  0.344  0.004  0.000  0.608  0.044
    occupations:
  0.991 -0.000 -0.000 -0.000 -0.000
 -0.000  0.977 -0.000  0.007 -0.009
 -0.000 -0.000  0.977 -0.009 -0.007
 -0.000  0.007 -0.009  0.984  0.000
 -0.000 -0.009 -0.007  0.000  0.984
atomic mag. moment =  -3.66122
atom    3   Tr[ns(na)] (up, down, total) =   1.26880  4.91890  6.18770
   spin  1
    eigenvalues: 
  0.198  0.198  0.208  0.332  0.332
    eigenvectors:
  0.000  0.000  1.000  0.000  0.000
  0.362  0.241  0.000  0.294  0.104
  0.241  0.362  0.000  0.104  0.294
  0.024  0.374  0.000  0.088  0.514
  0.374  0.024  0.000  0.514  0.088
    occupations:
  0.208 -0.000 -0.000 -0.000 -0.000
 -0.000  0.251 -0.000 -0.053  0.039
 -0.000 -0.000  0.251  0.039  0.053
 -0.000 -0.053  0.039  0.279  0.000
 -0.000  0.039  0.053  0.000  0.279
   spin  2
    eigenvalues: 
  0.973  0.973  0.990  0.991  0.991
    eigenvectors:
  0.000  0.000  1.000  0.000  0.000
  0.456  0.089  0.000  0.340  0.114
  0.089  0.456  0.000  0.114  0.340
  0.044  0.411  0.000  0.023  0.523
  0.411  0.044  0.000  0.523  0.023
    occupations:
  0.990 -0.000 -0.000 -0.000 -0.000
 -0.000  0.981 -0.000  0.006 -0.007
 -0.000 -0.000  0.981 -0.007 -0.006
 -0.000  0.006 -0.007  0.983  0.000
 -0.000 -0.007 -0.006  0.000  0.983
atomic mag. moment =  -3.65010
atom    4   Tr[ns(na)] (up, down, total) =   4.91906  1.27035  6.18941
   spin  1
    eigenvalues: 
  0.973  0.973  0.990  0.991  0.991
    eigenvectors:
  0.000  0.000  1.000  0.000  0.000
  0.010  0.535  0.000  0.050  0.404
  0.535  0.010  0.000  0.404  0.050
  0.190  0.265  0.000  0.126  0.419
  0.265  0.190  0.000  0.419  0.126
    occupations:
  0.990 -0.000 -0.000 -0.000 -0.000
 -0.000  0.981 -0.000 -0.006 -0.007
 -0.000 -0.000  0.981 -0.007  0.006
 -0.000 -0.006 -0.007  0.983  0.000
 -0.000 -0.007  0.006  0.000  0.983
   spin  2
    eigenvalues: 
  0.199  0.199  0.209  0.332  0.332
    eigenvectors:
  0.000  0.000  1.000  0.000  0.000
  0.001  0.602  0.000  0.001  0.396
  0.602  0.001  0.000  0.396  0.001
  0.157  0.240  0.000  0.182  0.421
  0.240  0.157  0.000  0.421  0.182
    occupations:
  0.209 -0.000 -0.000 -0.000 -0.000
 -0.000  0.252 -0.000  0.053  0.039
 -0.000 -0.000  0.252  0.039 -0.053
 -0.000  0.053  0.039  0.279  0.000
 -0.000  0.039 -0.053  0.000  0.279
atomic mag. moment =   3.64872
atom    5   Tr[ns(na)] (up, down, total) =   4.96210  1.14660  6.10870
   spin  1
    eigenvalues: 
  0.990  0.990  0.993  0.994  0.994
    eigenvectors:
  0.000  0.000  1.000  0.000  0.000
  0.336  0.005  0.000  0.440  0.219
  0.005  0.336  0.000  0.219  0.440
  0.141  0.518  0.000  0.000  0.341
  0.518  0.141  0.000  0.341  0.000
    occupations:
  0.993 -0.000 -0.000 -0.000 -0.000
 -0.000  0.993 -0.000  0.001 -0.002
 -0.000 -0.000  0.993 -0.002 -0.001
 -0.000  0.001 -0.002  0.992  0.000
 -0.000 -0.002 -0.001  0.000  0.992
   spin  2
    eigenvalues: 
  0.166  0.173  0.173  0.317  0.317
    eigenvectors:
  1.000  0.000  0.000  0.000  0.000
  0.000  0.366  0.020  0.587  0.026
  0.000  0.020  0.366  0.026  0.587
  0.000  0.060  0.553  0.043  0.343
  0.000  0.553  0.060  0.343  0.043
    occupations:
  0.166 -0.000 -0.000 -0.000 -0.000
 -0.000  0.261 -0.000 -0.036  0.060
 -0.000 -0.000  0.261  0.060  0.036
 -0.000 -0.036  0.060  0.229  0.000
 -0.000  0.060  0.036  0.000  0.229
atomic mag. moment =   3.81550
atom    6   Tr[ns(na)] (up, down, total) =   4.91400  1.25157  6.16557
   spin  1
    eigenvalues: 
  0.969  0.969  0.991  0.992  0.992
    eigenvectors:
  0.000  0.000  1.000  0.000  0.000
  0.009  0.642  0.000  0.071  0.277
  0.642  0.009  0.000  0.277  0.071
  0.180  0.168  0.000  0.125  0.527
  0.168  0.180  0.000  0.527  0.125
    occupations:
  0.991 -0.000 -0.000 -0.000 -0.000
 -0.000  0.977 -0.000 -0.007 -0.009
 -0.000 -0.000  0.977 -0.009  0.007
 -0.000 -0.007 -0.009  0.984  0.000
 -0.000 -0.009  0.007  0.000  0.984
   spin  2
    eigenvalues: 
  0.179  0.193  0.193  0.344  0.344
    eigenvectors:
  1.000  0.000  0.000  0.000  0.000
  0.000  0.004  0.260  0.005  0.730
  0.000  0.260  0.004  0.730  0.005
  0.000  0.172  0.563  0.114  0.151
  0.000  0.563  0.172  0.151  0.114
    occupations:
  0.179 -0.000 -0.000 -0.000 -0.000
 -0.000  0.304 -0.000  0.054  0.039
 -0.000 -0.000  0.304  0.039 -0.054
 -0.000  0.054  0.039  0.233  0.000
 -0.000  0.039 -0.054  0.000  0.233
atomic mag. moment =   3.66242
N of occupied +U levels =   36.928377
 --- exit write_ns ---
 Atomic wfc used for LDA+U Projector are NOT orthogonalized
     Starting wfcs from file

     total cpu time spent up to now is       16.6 secs

     Self-consistent Calculation

     iteration #  1     ecut=    35.00 Ry     beta= 0.40
     CG style diagonalization
     c_bands:  2 eigenvalues not converged
     c_bands:  1 eigenvalues not converged
     c_bands:  2 eigenvalues not converged
     ethr =  1.00E-09,  avg # of iterations = 22.7
 --- enter write_ns ---
 LDA+U parameters:
alpha( 3) =  0.05000000
alpha( 4) =  0.05000000
atom    1   Tr[ns(na)] (up, down, total) =   1.11585  4.96186  6.07771
   spin  1
    eigenvalues: 
  0.158  0.167  0.167  0.312  0.312
    eigenvectors:
  1.000  0.000  0.000  0.000  0.000
  0.000  0.077  0.313  0.024  0.587
  0.000  0.313  0.077  0.587  0.024
  0.000  0.166  0.445  0.204  0.186
  0.000  0.445  0.166  0.186  0.204
    occupations:
  0.158 -0.000 -0.000 -0.000 -0.000
 -0.000  0.256 -0.000  0.038  0.060
 -0.000 -0.000  0.256  0.060 -0.038
 -0.000  0.038  0.060  0.224  0.000
 -0.000  0.060 -0.038  0.000  0.224
   spin  2
    eigenvalues: 
  0.990  0.990  0.993  0.994  0.994
    eigenvectors:
  0.000  0.000  1.000  0.000  0.000
  0.044  0.292  0.000  0.048  0.616
  0.292  0.044  0.000  0.616  0.048
  0.226  0.438  0.000  0.147  0.189
  0.438  0.226  0.000  0.189  0.147
    occupations:
  0.993 -0.000 -0.000 -0.000 -0.000
 -0.000  0.993 -0.000 -0.001 -0.002
 -0.000 -0.000  0.993 -0.002  0.001
 -0.000 -0.001 -0.002  0.992  0.000
 -0.000 -0.002  0.001  0.000  0.992
atomic mag. moment =  -3.84601
atom    2   Tr[ns(na)] (up, down, total) =   1.22801  4.91570  6.14372
   spin  1
    eigenvalues: 
  0.175  0.187  0.187  0.340  0.340
    eigenvectors:
  1.000  0.000  0.000  0.000  0.000
  0.000  0.198  0.072  0.249  0.482
  0.000  0.072  0.198  0.482  0.249
  0.000  0.100  0.630  0.000  0.270
  0.000  0.630  0.100  0.270  0.000
    occupations:
  0.175 -0.000 -0.000 -0.000 -0.000
 -0.000  0.299 -0.000 -0.054  0.041
 -0.000 -0.000  0.299  0.041  0.054
 -0.000 -0.054  0.041  0.228  0.000
 -0.000  0.041  0.054  0.000  0.228
   spin  2
    eigenvalues: 
  0.970  0.970  0.991  0.992  0.992
    eigenvectors:
  0.000  0.000  1.000  0.000  0.000
  0.482  0.170  0.000  0.299  0.049
  0.170  0.482  0.000  0.049  0.299
  0.004  0.344  0.000  0.044  0.608
  0.344  0.004  0.000  0.608  0.044
    occupations:
  0.991 -0.000 -0.000 -0.000 -0.000
 -0.000  0.978 -0.000  0.006 -0.008
 -0.000 -0.000  0.978 -0.008 -0.006
 -0.000  0.006 -0.008  0.985  0.000
 -0.000 -0.008 -0.006  0.000  0.985
atomic mag. moment =  -3.68769
atom    3   Tr[ns(na)] (up, down, total) =   1.25160  4.92004  6.17163
   spin  1
    eigenvalues: 
  0.195  0.195  0.204  0.329  0.329
    eigenvectors:
  0.000  0.000  1.000  0.000  0.000
  0.362  0.234  0.000  0.298  0.105
  0.234  0.362  0.000  0.105  0.298
  0.025  0.379  0.000  0.086  0.510
  0.379  0.025  0.000  0.510  0.086
    occupations:
  0.204 -0.000 -0.000 -0.000 -0.000
 -0.000  0.249 -0.000 -0.053  0.040
 -0.000 -0.000  0.249  0.040  0.053
 -0.000 -0.053  0.040  0.275  0.000
 -0.000  0.040  0.053  0.000  0.275
   spin  2
    eigenvalues: 
  0.974  0.974  0.990  0.991  0.991
    eigenvectors:
  0.000  0.000  1.000  0.000  0.000
  0.455  0.089  0.000  0.341  0.116
  0.089  0.455  0.000  0.116  0.341
  0.044  0.412  0.000  0.022  0.521
  0.412  0.044  0.000  0.521  0.022
    occupations:
  0.990 -0.000 -0.000 -0.000 -0.000
 -0.000  0.982 -0.000  0.006 -0.006
 -0.000 -0.000  0.982 -0.006 -0.006
 -0.000  0.006 -0.006  0.983  0.000
 -0.000 -0.006 -0.006  0.000  0.983
atomic mag. moment =  -3.66844
atom    4   Tr[ns(na)] (up, down, total) =   4.91916  1.24156  6.16071
   spin  1
    eigenvalues: 
  0.973  0.973  0.990  0.991  0.991
    eigenvectors:
  0.000  0.000  1.000  0.000  0.000
  0.011  0.532  0.000  0.051  0.407
  0.532  0.011  0.000  0.407  0.051
  0.190  0.267  0.000  0.125  0.417
  0.267  0.190  0.000  0.417  0.125
    occupations:
  0.990 -0.000 -0.000 -0.000 -0.000
 -0.000  0.981 -0.000 -0.006 -0.007
 -0.000 -0.000  0.981 -0.007  0.006
 -0.000 -0.006 -0.007  0.983  0.000
 -0.000 -0.007  0.006  0.000  0.983
   spin  2
    eigenvalues: 
  0.192  0.192  0.202  0.328  0.328
    eigenvectors:
  0.000  0.000  1.000  0.000  0.000
  0.000  0.595  0.000  0.002  0.403
  0.595  0.000  0.000  0.403  0.002
  0.159  0.245  0.000  0.183  0.412
  0.245  0.159  0.000  0.412  0.183
    occupations:
  0.202 -0.000 -0.000 -0.000 -0.000
 -0.000  0.247 -0.000  0.053  0.040
 -0.000 -0.000  0.247  0.040 -0.053
 -0.000  0.053  0.040  0.273  0.000
 -0.000  0.040 -0.053  0.000  0.273
atomic mag. moment =   3.67760
atom    5   Tr[ns(na)] (up, down, total) =   4.96225  1.13992  6.10217
   spin  1
    eigenvalues: 
  0.990  0.990  0.993  0.994  0.994
    eigenvectors:
  0.000  0.000  1.000  0.000  0.000
  0.341  0.003  0.000  0.447  0.209
  0.003  0.341  0.000  0.209  0.447
  0.142  0.513  0.000  0.000  0.344
  0.513  0.142  0.000  0.344  0.000
    occupations:
  0.993 -0.000 -0.000 -0.000 -0.000
 -0.000  0.993 -0.000  0.001 -0.002
 -0.000 -0.000  0.993 -0.002 -0.001
 -0.000  0.001 -0.002  0.992  0.000
 -0.000 -0.002 -0.001  0.000  0.992
   spin  2
    eigenvalues: 
  0.169  0.172  0.172  0.314  0.314
    eigenvectors:
  1.000  0.000  0.000  0.000  0.000
  0.000  0.366  0.021  0.586  0.027
  0.000  0.021  0.366  0.027  0.586
  0.000  0.060  0.553  0.043  0.344
  0.000  0.553  0.060  0.344  0.043
    occupations:
  0.169 -0.000 -0.000 -0.000 -0.000
 -0.000  0.259 -0.000 -0.036  0.059
 -0.000 -0.000  0.259  0.059  0.036
 -0.000 -0.036  0.059  0.227  0.000
 -0.000  0.059  0.036  0.000  0.227
atomic mag. moment =   3.82232
atom    6   Tr[ns(na)] (up, down, total) =   4.91512  1.23899  6.15410
   spin  1
    eigenvalues: 
  0.970  0.970  0.991  0.992  0.992
    eigenvectors:
  0.000  0.000  1.000  0.000  0.000
  0.009  0.643  0.000  0.071  0.278
  0.643  0.009  0.000  0.278  0.071
  0.179  0.169  0.000  0.125  0.527
  0.169  0.179  0.000  0.527  0.125
    occupations:
  0.991 -0.000 -0.000 -0.000 -0.000
 -0.000  0.978 -0.000 -0.007 -0.009
 -0.000 -0.000  0.978 -0.009  0.007
 -0.000 -0.007 -0.009  0.985  0.000
 -0.000 -0.009  0.007  0.000  0.985
   spin  2
    eigenvalues: 
  0.176  0.191  0.191  0.341  0.341
    eigenvectors:
  1.000  0.000  0.000  0.000  0.000
  0.000  0.004  0.261  0.005  0.730
  0.000  0.261  0.004  0.730  0.005
  0.000  0.173  0.562  0.115  0.151
  0.000  0.562  0.173  0.151  0.115
    occupations:
  0.176 -0.000 -0.000 -0.000 -0.000
 -0.000  0.301 -0.000  0.053  0.039
 -0.000 -0.000  0.301  0.039 -0.053
 -0.000  0.053  0.039  0.231  0.000
 -0.000  0.039 -0.053  0.000  0.231
atomic mag. moment =   3.67613
N of occupied +U levels =   36.810047
 --- exit write_ns ---

     negative rho (up, down):  1.235E-01 1.235E-01
 --- in v_hubbard ---
Hubbard energy    0.1355
 -------

     total cpu time spent up to now is      884.6 secs

     total energy              =   -3194.90130714 Ry
     estimated scf accuracy    <       0.00170181 Ry

     total magnetization       =    -0.03 Bohr mag/cell
     absolute magnetization    =    27.38 Bohr mag/cell

     iteration #  2     ecut=    35.00 Ry     beta= 0.40
     CG style diagonalization
     ethr =  5.79E-07,  avg # of iterations =  3.4
 --- enter write_ns ---
 LDA+U parameters:
alpha( 3) =  0.05000000
alpha( 4) =  0.05000000
atom    1   Tr[ns(na)] (up, down, total) =   1.23420  4.96602  6.20022
   spin  1
    eigenvalues: 
  0.190  0.190  0.205  0.325  0.325
    eigenvectors:
  0.000  0.000  1.000  0.000  0.000
  0.095  0.280  0.000  0.032  0.593
  0.280  0.095  0.000  0.593  0.032
  0.167  0.458  0.000  0.209  0.166
  0.458  0.167  0.000  0.166  0.209
    occupations:
  0.205 -0.000 -0.000 -0.000 -0.000
 -0.000  0.274 -0.000  0.031  0.057
 -0.000 -0.000  0.274  0.057 -0.031
 -0.000  0.031  0.057  0.241  0.000
 -0.000  0.057 -0.031  0.000  0.241
   spin  2
    eigenvalues: 
  0.991  0.991  0.993  0.995  0.995
    eigenvectors:
  0.000  0.000  1.000  0.000  0.000
  0.053  0.257  0.000  0.042  0.649
  0.257  0.053  0.000  0.649  0.042
  0.229  0.461  0.000  0.156  0.153
  0.461  0.229  0.000  0.153  0.156
    occupations:
  0.993 -0.000 -0.000 -0.000 -0.000
 -0.000  0.994 -0.000 -0.001 -0.001
 -0.000 -0.000  0.994 -0.001  0.001
 -0.000 -0.001 -0.001  0.993  0.000
 -0.000 -0.001  0.001  0.000  0.993
atomic mag. moment =  -3.73182
atom    2   Tr[ns(na)] (up, down, total) =   1.29053  4.91642  6.20695
   spin  1
    eigenvalues: 
  0.184  0.205  0.205  0.348  0.348
    eigenvectors:
  1.000  0.000  0.000  0.000  0.000
  0.000  0.175  0.074  0.213  0.538
  0.000  0.074  0.175  0.538  0.213
  0.000  0.113  0.638  0.000  0.249
  0.000  0.638  0.113  0.249  0.000
    occupations:
  0.184 -0.000 -0.000 -0.000 -0.000
 -0.000  0.312 -0.000 -0.051  0.035
 -0.000 -0.000  0.312  0.035  0.051
 -0.000 -0.051  0.035  0.241  0.000
 -0.000  0.035  0.051  0.000  0.241
   spin  2
    eigenvalues: 
  0.970  0.970  0.991  0.993  0.993
    eigenvectors:
  0.000  0.000  1.000  0.000  0.000
  0.474  0.180  0.000  0.296  0.050
  0.180  0.474  0.000  0.050  0.296
  0.004  0.342  0.000  0.045  0.609
  0.342  0.004  0.000  0.609  0.045
    occupations:
  0.991 -0.000 -0.000 -0.000 -0.000
 -0.000  0.978 -0.000  0.007 -0.009
 -0.000 -0.000  0.978 -0.009 -0.007
 -0.000  0.007 -0.009  0.985  0.000
 -0.000 -0.009 -0.007  0.000  0.985
atomic mag. moment =  -3.62588
atom    3   Tr[ns(na)] (up, down, total) =   1.28348  4.92392  6.20739
   spin  1
    eigenvalues: 
  0.201  0.201  0.213  0.334  0.334
    eigenvectors:
  0.000  0.000  1.000  0.000  0.000
  0.370  0.244  0.000  0.292  0.095
  0.244  0.370  0.000  0.095  0.292
  0.021  0.365  0.000  0.094  0.520
  0.365  0.021  0.000  0.520  0.094
    occupations:
  0.213 -0.000 -0.000 -0.000 -0.000
 -0.000  0.253 -0.000 -0.051  0.039
 -0.000 -0.000  0.253  0.039  0.051
 -0.000 -0.051  0.039  0.283  0.000
 -0.000  0.039  0.051  0.000  0.283
   spin  2
    eigenvalues: 
  0.975  0.975  0.991  0.991  0.991
    eigenvectors:
  0.000  0.000  1.000  0.000  0.000
  0.450  0.082  0.000  0.345  0.122
  0.082  0.450  0.000  0.122  0.345
  0.049  0.419  0.000  0.020  0.512
  0.419  0.049  0.000  0.512  0.020
    occupations:
  0.991 -0.000 -0.000 -0.000 -0.000
 -0.000  0.983 -0.000  0.005 -0.006
 -0.000 -0.000  0.983 -0.006 -0.005
 -0.000  0.005 -0.006  0.984  0.000
 -0.000 -0.006 -0.005  0.000  0.984
atomic mag. moment =  -3.64044
atom    4   Tr[ns(na)] (up, down, total) =   4.91565  1.29570  6.21135
   spin  1
    eigenvalues: 
  0.971  0.971  0.991  0.991  0.991
    eigenvectors:
  0.000  0.000  1.000  0.000  0.000
  0.007  0.554  0.000  0.042  0.397
  0.554  0.007  0.000  0.397  0.042
  0.183  0.257  0.000  0.126  0.434
  0.257  0.183  0.000  0.434  0.126
    occupations:
  0.991 -0.000 -0.000 -0.000 -0.000
 -0.000  0.980 -0.000 -0.007 -0.007
 -0.000 -0.000  0.980 -0.007  0.007
 -0.000 -0.007 -0.007  0.982  0.000
 -0.000 -0.007  0.007  0.000  0.982
   spin  2
    eigenvalues: 
  0.203  0.203  0.215  0.337  0.337
    eigenvectors:
  0.000  0.000  1.000  0.000  0.000
  0.001  0.597  0.000  0.001  0.401
  0.597  0.001  0.000  0.401  0.001
  0.159  0.243  0.000  0.182  0.416
  0.243  0.159  0.000  0.416  0.182
    occupations:
  0.215 -0.000 -0.000 -0.000 -0.000
 -0.000  0.257 -0.000  0.053  0.039
 -0.000 -0.000  0.257  0.039 -0.053
 -0.000  0.053  0.039  0.283  0.000
 -0.000  0.039 -0.053  0.000  0.283
atomic mag. moment =   3.61995
atom    5   Tr[ns(na)] (up, down, total) =   4.94752  1.13267  6.08019
   spin  1
    eigenvalues: 
  0.983  0.983  0.993  0.994  0.994
    eigenvectors:
  0.000  0.000  1.000  0.000  0.000
  0.377  0.099  0.000  0.332  0.193
  0.099  0.377  0.000  0.193  0.332
  0.063  0.461  0.000  0.015  0.461
  0.461  0.063  0.000  0.461  0.015
    occupations:
  0.993 -0.000 -0.000 -0.000 -0.000
 -0.000  0.989 -0.000  0.004 -0.004
 -0.000 -0.000  0.989 -0.004 -0.004
 -0.000  0.004 -0.004  0.988  0.000
 -0.000 -0.004 -0.004  0.000  0.988
   spin  2
    eigenvalues: 
  0.159  0.172  0.172  0.314  0.314
    eigenvectors:
  1.000  0.000  0.000  0.000  0.000
  0.000  0.366  0.024  0.581  0.030
  0.000  0.024  0.366  0.030  0.581
  0.000  0.057  0.553  0.043  0.347
  0.000  0.553  0.057  0.347  0.043
    occupations:
  0.159 -0.000 -0.000 -0.000 -0.000
 -0.000  0.259 -0.000 -0.037  0.059
 -0.000 -0.000  0.259  0.059  0.037
 -0.000 -0.037  0.059  0.228  0.000
 -0.000  0.059  0.037  0.000  0.228
atomic mag. moment =   3.81485
atom    6   Tr[ns(na)] (up, down, total) =   4.90344  1.23818  6.14162
   spin  1
    eigenvalues: 
  0.964  0.964  0.991  0.992  0.992
    eigenvectors:
  0.000  0.000  1.000  0.000  0.000
  0.007  0.628  0.000  0.060  0.304
  0.628  0.007  0.000  0.304  0.060
  0.177  0.187  0.000  0.126  0.510
  0.187  0.177  0.000  0.510  0.126
    occupations:
  0.991 -0.000 -0.000 -0.000 -0.000
 -0.000  0.974 -0.000 -0.009 -0.011
 -0.000 -0.000  0.974 -0.011  0.009
 -0.000 -0.009 -0.011  0.982  0.000
 -0.000 -0.011  0.009  0.000  0.982
   spin  2
    eigenvalues: 
  0.177  0.188  0.188  0.342  0.342
    eigenvectors:
  1.000  0.000  0.000  0.000  0.000
  0.000  0.007  0.265  0.003  0.725
  0.000  0.265  0.007  0.725  0.003
  0.000  0.171  0.557  0.122  0.150
  0.000  0.557  0.171  0.150  0.122
    occupations:
  0.177 -0.000 -0.000 -0.000 -0.000
 -0.000  0.300 -0.000  0.054  0.043
 -0.000 -0.000  0.300  0.043 -0.054
 -0.000  0.054  0.043  0.230  0.000
 -0.000  0.043 -0.054  0.000  0.230
atomic mag. moment =   3.66526
N of occupied +U levels =   37.047726
 --- exit write_ns ---

     negative rho (up, down):  1.235E-01 1.235E-01
 --- in v_hubbard ---
Hubbard energy    0.1356
 -------

     total cpu time spent up to now is     1009.2 secs

     total energy              =   -3194.90022757 Ry
     estimated scf accuracy    <       0.02058957 Ry

     total magnetization       =    -0.01 Bohr mag/cell
     absolute magnetization    =    27.15 Bohr mag/cell

     iteration #  3     ecut=    35.00 Ry     beta= 0.40
     CG style diagonalization
     ethr =  5.79E-07,  avg # of iterations =  3.2
 --- enter write_ns ---
 LDA+U parameters:
alpha( 3) =  0.05000000
alpha( 4) =  0.05000000
atom    1   Tr[ns(na)] (up, down, total) =   1.12770  4.95410  6.08180
   spin  1
    eigenvalues: 
  0.156  0.171  0.171  0.314  0.314
    eigenvectors:
  1.000  0.000  0.000  0.000  0.000
  0.000  0.077  0.315  0.024  0.584
  0.000  0.315  0.077  0.584  0.024
  0.000  0.165  0.443  0.204  0.188
  0.000  0.443  0.165  0.188  0.204
    occupations:
  0.156 -0.000 -0.000 -0.000 -0.000
 -0.000  0.258 -0.000  0.037  0.059
 -0.000 -0.000  0.258  0.059 -0.037
 -0.000  0.037  0.059  0.227  0.000
 -0.000  0.059 -0.037  0.000  0.227
   spin  2
    eigenvalues: 
  0.986  0.986  0.993  0.994  0.994
    eigenvectors:
  0.000  0.000  1.000  0.000  0.000
  0.012  0.421  0.000  0.029  0.537
  0.421  0.012  0.000  0.537  0.029
  0.199  0.367  0.000  0.129  0.305
  0.367  0.199  0.000  0.305  0.129
    occupations:
  0.993 -0.000 -0.000 -0.000 -0.000
 -0.000  0.991 -0.000 -0.003 -0.003
 -0.000 -0.000  0.991 -0.003  0.003
 -0.000 -0.003 -0.003  0.990  0.000
 -0.000 -0.003  0.003  0.000  0.990
atomic mag. moment =  -3.82641
atom    2   Tr[ns(na)] (up, down, total) =   1.22982  4.90611  6.13593
   spin  1
    eigenvalues: 
  0.176  0.186  0.186  0.341  0.341
    eigenvectors:
  1.000  0.000  0.000  0.000  0.000
  0.000  0.210  0.068  0.264  0.459
  0.000  0.068  0.210  0.459  0.264
  0.000  0.096  0.627  0.000  0.277
  0.000  0.627  0.096  0.277  0.000
    occupations:
  0.176 -0.000 -0.000 -0.000 -0.000
 -0.000  0.298 -0.000 -0.054  0.044
 -0.000 -0.000  0.298  0.044  0.054
 -0.000 -0.054  0.044  0.229  0.000
 -0.000  0.044  0.054  0.000  0.229
   spin  2
    eigenvalues: 
  0.965  0.965  0.991  0.992  0.992
    eigenvectors:
  0.000  0.000  1.000  0.000  0.000
  0.470  0.176  0.000  0.298  0.056
  0.176  0.470  0.000  0.056  0.298
  0.005  0.349  0.000  0.043  0.603
  0.349  0.005  0.000  0.603  0.043
    occupations:
  0.991 -0.000 -0.000 -0.000 -0.000
 -0.000  0.975 -0.000  0.008 -0.010
 -0.000 -0.000  0.975 -0.010 -0.008
 -0.000  0.008 -0.010  0.983  0.000
 -0.000 -0.010 -0.008  0.000  0.983
atomic mag. moment =  -3.67629
atom    3   Tr[ns(na)] (up, down, total) =   1.25070  4.91238  6.16308
   spin  1
    eigenvalues: 
  0.193  0.193  0.205  0.330  0.330
    eigenvectors:
  0.000  0.000  1.000  0.000  0.000
  0.367  0.215  0.000  0.314  0.103
  0.215  0.367  0.000  0.103  0.314
  0.026  0.391  0.000  0.082  0.500
  0.391  0.026  0.000  0.500  0.082
    occupations:
  0.205 -0.000 -0.000 -0.000 -0.000
 -0.000  0.250 -0.000 -0.053  0.041
 -0.000 -0.000  0.250  0.041  0.053
 -0.000 -0.053  0.041  0.273  0.000
 -0.000  0.041  0.053  0.000  0.273
   spin  2
    eigenvalues: 
  0.970  0.970  0.990  0.991  0.991
    eigenvectors:
  0.000  0.000  1.000  0.000  0.000
  0.453  0.107  0.000  0.329  0.111
  0.107  0.453  0.000  0.111  0.329
  0.036  0.404  0.000  0.026  0.534
  0.404  0.036  0.000  0.534  0.026
    occupations:
  0.990 -0.000 -0.000 -0.000 -0.000
 -0.000  0.979 -0.000  0.007 -0.008
 -0.000 -0.000  0.979 -0.008 -0.007
 -0.000  0.007 -0.008  0.982  0.000
 -0.000 -0.008 -0.007  0.000  0.982
atomic mag. moment =  -3.66168
atom    4   Tr[ns(na)] (up, down, total) =   4.92558  1.29744  6.22302
   spin  1
    eigenvalues: 
  0.976  0.976  0.991  0.991  0.991
    eigenvectors:
  0.000  0.000  1.000  0.000  0.000
  0.011  0.522  0.000  0.049  0.419
  0.522  0.011  0.000  0.419  0.049
  0.191  0.276  0.000  0.126  0.407
  0.276  0.191  0.000  0.407  0.126
    occupations:
  0.991 -0.000 -0.000 -0.000 -0.000
 -0.000  0.983 -0.000 -0.005 -0.006
 -0.000 -0.000  0.983 -0.006  0.005
 -0.000 -0.005 -0.006  0.984  0.000
 -0.000 -0.006  0.005  0.000  0.984
   spin  2
    eigenvalues: 
  0.205  0.205  0.214  0.336  0.336
    eigenvectors:
  0.000  0.000  1.000  0.000  0.000
  0.003  0.621  0.000  0.001  0.376
  0.621  0.003  0.000  0.376  0.001
  0.153  0.224  0.000  0.183  0.440
  0.224  0.153  0.000  0.440  0.183
    occupations:
  0.214 -0.000 -0.000 -0.000 -0.000
 -0.000  0.255 -0.000  0.052  0.037
 -0.000 -0.000  0.255  0.037 -0.052
 -0.000  0.052  0.037  0.287  0.000
 -0.000  0.037 -0.052  0.000  0.287
atomic mag. moment =   3.62813
atom    5   Tr[ns(na)] (up, down, total) =   4.96526  1.17783  6.14310
   spin  1
    eigenvalues: 
  0.991  0.991  0.993  0.995  0.995
    eigenvectors:
  0.000  0.000  1.000  0.000  0.000
  0.281  0.000  0.000  0.463  0.255
  0.000  0.281  0.000  0.255  0.463
  0.172  0.547  0.000  0.007  0.274
  0.547  0.172  0.000  0.274  0.007
    occupations:
  0.993 -0.000 -0.000 -0.000 -0.000
 -0.000  0.994 -0.000  0.001 -0.001
 -0.000 -0.000  0.994 -0.001 -0.001
 -0.000  0.001 -0.001  0.992  0.000
 -0.000 -0.001 -0.001  0.000  0.992
   spin  2
    eigenvalues: 
  0.179  0.179  0.183  0.318  0.318
    eigenvectors:
  0.000  0.000  1.000  0.000  0.000
  0.364  0.015  0.000  0.606  0.016
  0.015  0.364  0.000  0.016  0.606
  0.064  0.558  0.000  0.048  0.330
  0.558  0.064  0.000  0.330  0.048
    occupations:
  0.183 -0.000 -0.000 -0.000 -0.000
 -0.000  0.266 -0.000 -0.034  0.058
 -0.000 -0.000  0.266  0.058  0.034
 -0.000 -0.034  0.058  0.232  0.000
 -0.000  0.058  0.034  0.000  0.232
atomic mag. moment =   3.78743
atom    6   Tr[ns(na)] (up, down, total) =   4.92073  1.28376  6.20449
   spin  1
    eigenvalues: 
  0.972  0.972  0.991  0.993  0.993
    eigenvectors:
  0.000  0.000  1.000  0.000  0.000
  0.009  0.645  0.000  0.072  0.274
  0.645  0.009  0.000  0.274  0.072
  0.180  0.166  0.000  0.124  0.530
  0.166  0.180  0.000  0.530  0.124
    occupations:
  0.991 -0.000 -0.000 -0.000 -0.000
 -0.000  0.979 -0.000 -0.006 -0.008
 -0.000 -0.000  0.979 -0.008  0.006
 -0.000 -0.006 -0.008  0.986  0.000
 -0.000 -0.008  0.006  0.000  0.986
   spin  2
    eigenvalues: 
  0.183  0.202  0.202  0.348  0.348
    eigenvectors:
  1.000  0.000  0.000  0.000  0.000
  0.000  0.001  0.246  0.010  0.743
  0.000  0.246  0.001  0.743  0.010
  0.000  0.176  0.577  0.102  0.146
  0.000  0.577  0.176  0.146  0.102
    occupations:
  0.183 -0.000 -0.000 -0.000 -0.000
 -0.000  0.312 -0.000  0.052  0.034
 -0.000 -0.000  0.312  0.034 -0.052
 -0.000  0.052  0.034  0.238  0.000
 -0.000  0.034 -0.052  0.000  0.238
atomic mag. moment =   3.63697
N of occupied +U levels =   36.951421
 --- exit write_ns ---

     negative rho (up, down):  1.235E-01 1.235E-01
 --- in v_hubbard ---
Hubbard energy    0.1356
 -------

     total cpu time spent up to now is     1124.5 secs

     total energy              =   -3194.90147207 Ry
     estimated scf accuracy    <       0.01255596 Ry

     total magnetization       =    -0.02 Bohr mag/cell
     absolute magnetization    =    27.26 Bohr mag/cell

     iteration #  4     ecut=    35.00 Ry     beta= 0.40
     CG style diagonalization
     ethr =  5.79E-07,  avg # of iterations =  3.0
 --- enter write_ns ---
 LDA+U parameters:
alpha( 3) =  0.05000000
alpha( 4) =  0.05000000
atom    1   Tr[ns(na)] (up, down, total) =   1.13248  4.96239  6.09487
   spin  1
    eigenvalues: 
  0.163  0.171  0.171  0.314  0.314
    eigenvectors:
  1.000  0.000  0.000  0.000  0.000
  0.000  0.079  0.309  0.025  0.586
  0.000  0.309  0.079  0.586  0.025
  0.000  0.166  0.446  0.204  0.184
  0.000  0.446  0.166  0.184  0.204
    occupations:
  0.163 -0.000 -0.000 -0.000 -0.000
 -0.000  0.259 -0.000  0.037  0.060
 -0.000 -0.000  0.259  0.060 -0.037
 -0.000  0.037  0.060  0.226  0.000
 -0.000  0.060 -0.037  0.000  0.226
   spin  2
    eigenvalues: 
  0.990  0.990  0.993  0.994  0.994
    eigenvectors:
  0.000  0.000  1.000  0.000  0.000
  0.043  0.295  0.000  0.048  0.614
  0.295  0.043  0.000  0.614  0.048
  0.225  0.437  0.000  0.146  0.192
  0.437  0.225  0.000  0.192  0.146
    occupations:
  0.993 -0.000 -0.000 -0.000 -0.000
 -0.000  0.993 -0.000 -0.001 -0.002
 -0.000 -0.000  0.993 -0.002  0.001
 -0.000 -0.001 -0.002  0.992  0.000
 -0.000 -0.002  0.001  0.000  0.992
atomic mag. moment =  -3.82991
atom    2   Tr[ns(na)] (up, down, total) =   1.25055  4.91676  6.16731
   spin  1
    eigenvalues: 
  0.179  0.192  0.192  0.344  0.344
    eigenvectors:
  1.000  0.000  0.000  0.000  0.000
  0.000  0.192  0.073  0.239  0.496
  0.000  0.073  0.192  0.496  0.239
  0.000  0.103  0.632  0.000  0.265
  0.000  0.632  0.103  0.265  0.000
    occupations:
  0.179 -0.000 -0.000 -0.000 -0.000
 -0.000  0.304 -0.000 -0.054  0.040
 -0.000 -0.000  0.304  0.040  0.054
 -0.000 -0.054  0.040  0.232  0.000
 -0.000  0.040  0.054  0.000  0.232
   spin  2
    eigenvalues: 
  0.970  0.970  0.991  0.993  0.993
    eigenvectors:
  0.000  0.000  1.000  0.000  0.000
  0.479  0.173  0.000  0.298  0.049
  0.173  0.479  0.000  0.049  0.298
  0.004  0.344  0.000  0.044  0.608
  0.344  0.004  0.000  0.608  0.044
    occupations:
  0.991 -0.000 -0.000 -0.000 -0.000
 -0.000  0.978 -0.000  0.006 -0.008
 -0.000 -0.000  0.978 -0.008 -0.006
 -0.000  0.006 -0.008  0.985  0.000
 -0.000 -0.008 -0.006  0.000  0.985
atomic mag. moment =  -3.66621
atom    3   Tr[ns(na)] (up, down, total) =   1.26870  4.92099  6.18969
   spin  1
    eigenvalues: 
  0.198  0.198  0.208  0.332  0.332
    eigenvectors:
  0.000  0.000  1.000  0.000  0.000
  0.361  0.240  0.000  0.295  0.104
  0.240  0.361  0.000  0.104  0.295
  0.024  0.375  0.000  0.088  0.513
  0.375  0.024  0.000  0.513  0.088
    occupations:
  0.208 -0.000 -0.000 -0.000 -0.000
 -0.000  0.252 -0.000 -0.053  0.039
 -0.000 -0.000  0.252  0.039  0.053
 -0.000 -0.053  0.039  0.279  0.000
 -0.000  0.039  0.053  0.000  0.279
   spin  2
    eigenvalues: 
  0.974  0.974  0.990  0.991  0.991
    eigenvectors:
  0.000  0.000  1.000  0.000  0.000
  0.455  0.089  0.000  0.341  0.116
  0.089  0.455  0.000  0.116  0.341
  0.044  0.412  0.000  0.022  0.521
  0.412  0.044  0.000  0.521  0.022
    occupations:
  0.990 -0.000 -0.000 -0.000 -0.000
 -0.000  0.982 -0.000  0.006 -0.006
 -0.000 -0.000  0.982 -0.006 -0.006
 -0.000  0.006 -0.006  0.983  0.000
 -0.000 -0.006 -0.006  0.000  0.983
atomic mag. moment =  -3.65228
atom    4   Tr[ns(na)] (up, down, total) =   4.91883  1.25546  6.17429
   spin  1
    eigenvalues: 
  0.973  0.973  0.990  0.991  0.991
    eigenvectors:
  0.000  0.000  1.000  0.000  0.000
  0.010  0.537  0.000  0.050  0.402
  0.537  0.010  0.000  0.402  0.050
  0.189  0.263  0.000  0.126  0.422
  0.263  0.189  0.000  0.422  0.126
    occupations:
  0.990 -0.000 -0.000 -0.000 -0.000
 -0.000  0.981 -0.000 -0.006 -0.007
 -0.000 -0.000  0.981 -0.007  0.006
 -0.000 -0.006 -0.007  0.983  0.000
 -0.000 -0.007  0.006  0.000  0.983
   spin  2
    eigenvalues: 
  0.195  0.195  0.205  0.330  0.330
    eigenvectors:
  0.000  0.000  1.000  0.000  0.000
  0.000  0.596  0.000  0.002  0.402
  0.596  0.000  0.000  0.402  0.002
  0.159  0.244  0.000  0.183  0.414
  0.244  0.159  0.000  0.414  0.183
    occupations:
  0.205 -0.000 -0.000 -0.000 -0.000
 -0.000  0.250 -0.000  0.053  0.040
 -0.000 -0.000  0.250  0.040 -0.053
 -0.000  0.053  0.040  0.276  0.000
 -0.000  0.040 -0.053  0.000  0.276
atomic mag. moment =   3.66337
atom    5   Tr[ns(na)] (up, down, total) =   4.96211  1.14345  6.10556
   spin  1
    eigenvalues: 
  0.990  0.990  0.993  0.994  0.994
    eigenvectors:
  0.000  0.000  1.000  0.000  0.000
  0.346  0.005  0.000  0.440  0.209
  0.005  0.346  0.000  0.209  0.440
  0.137  0.511  0.000  0.000  0.351
  0.511  0.137  0.000  0.351  0.000
    occupations:
  0.993 -0.000 -0.000 -0.000 -0.000
 -0.000  0.993 -0.000  0.001 -0.002
 -0.000 -0.000  0.993 -0.002 -0.001
 -0.000  0.001 -0.002  0.992  0.000
 -0.000 -0.002 -0.001  0.000  0.992
   spin  2
    eigenvalues: 
  0.168  0.173  0.173  0.315  0.315
    eigenvectors:
  1.000  0.000  0.000  0.000  0.000
  0.000  0.367  0.021  0.586  0.026
  0.000  0.021  0.367  0.026  0.586
  0.000  0.059  0.553  0.044  0.344
  0.000  0.553  0.059  0.344  0.044
    occupations:
  0.168 -0.000 -0.000 -0.000 -0.000
 -0.000  0.260 -0.000 -0.036  0.059
 -0.000 -0.000  0.260  0.059  0.036
 -0.000 -0.036  0.059  0.228  0.000
 -0.000  0.059  0.036  0.000  0.228
atomic mag. moment =   3.81865
atom    6   Tr[ns(na)] (up, down, total) =   4.91433  1.24452  6.15885
   spin  1
    eigenvalues: 
  0.969  0.969  0.991  0.992  0.992
    eigenvectors:
  0.000  0.000  1.000  0.000  0.000
  0.009  0.643  0.000  0.071  0.277
  0.643  0.009  0.000  0.277  0.071
  0.179  0.168  0.000  0.125  0.528
  0.168  0.179  0.000  0.528  0.125
    occupations:
  0.991 -0.000 -0.000 -0.000 -0.000
 -0.000  0.977 -0.000 -0.007 -0.009
 -0.000 -0.000  0.977 -0.009  0.007
 -0.000 -0.007 -0.009  0.984  0.000
 -0.000 -0.009  0.007  0.000  0.984
   spin  2
    eigenvalues: 
  0.177  0.191  0.191  0.342  0.342
    eigenvectors:
  1.000  0.000  0.000  0.000  0.000
  0.000  0.005  0.261  0.005  0.730
  0.000  0.261  0.005  0.730  0.005
  0.000  0.172  0.562  0.115  0.151
  0.000  0.562  0.172  0.151  0.115
    occupations:
  0.177 -0.000 -0.000 -0.000 -0.000
 -0.000  0.302 -0.000  0.054  0.040
 -0.000 -0.000  0.302  0.040 -0.054
 -0.000  0.054  0.040  0.231  0.000
 -0.000  0.040 -0.054  0.000  0.231
atomic mag. moment =   3.66981
N of occupied +U levels =   36.890571
 --- exit write_ns ---

     negative rho (up, down):  1.235E-01 1.235E-01
 --- in v_hubbard ---
Hubbard energy    0.1356
 -------

     total cpu time spent up to now is     1232.8 secs

     total energy              =   -3194.90202747 Ry
     estimated scf accuracy    <       0.00027892 Ry

     total magnetization       =    -0.01 Bohr mag/cell
     absolute magnetization    =    27.34 Bohr mag/cell

     iteration #  5     ecut=    35.00 Ry     beta= 0.40
     CG style diagonalization
     ethr =  9.49E-08,  avg # of iterations =  3.0
 --- enter write_ns ---
 LDA+U parameters:
alpha( 3) =  0.05000000
alpha( 4) =  0.05000000
atom    1   Tr[ns(na)] (up, down, total) =   1.13766  4.96245  6.10011
   spin  1
    eigenvalues: 
  0.165  0.171  0.171  0.315  0.315
    eigenvectors:
  1.000  0.000  0.000  0.000  0.000
  0.000  0.079  0.309  0.025  0.587
  0.000  0.309  0.079  0.587  0.025
  0.000  0.166  0.446  0.205  0.183
  0.000  0.446  0.166  0.183  0.205
    occupations:
  0.165 -0.000 -0.000 -0.000 -0.000
 -0.000  0.259 -0.000  0.037  0.059
 -0.000 -0.000  0.259  0.059 -0.037
 -0.000  0.037  0.059  0.227  0.000
 -0.000  0.059 -0.037  0.000  0.227
   spin  2
    eigenvalues: 
  0.990  0.990  0.993  0.994  0.994
    eigenvectors:
  0.000  0.000  1.000  0.000  0.000
  0.043  0.298  0.000  0.047  0.612
  0.298  0.043  0.000  0.612  0.047
  0.225  0.434  0.000  0.146  0.195
  0.434  0.225  0.000  0.195  0.146
    occupations:
  0.993 -0.000 -0.000 -0.000 -0.000
 -0.000  0.993 -0.000 -0.001 -0.002
 -0.000 -0.000  0.993 -0.002  0.001
 -0.000 -0.001 -0.002  0.992  0.000
 -0.000 -0.002  0.001  0.000  0.992
atomic mag. moment =  -3.82479
atom    2   Tr[ns(na)] (up, down, total) =   1.24218  4.91519  6.15737
   spin  1
    eigenvalues: 
  0.177  0.190  0.190  0.342  0.342
    eigenvectors:
  1.000  0.000  0.000  0.000  0.000
  0.000  0.195  0.072  0.243  0.490
  0.000  0.072  0.195  0.490  0.243
  0.000  0.102  0.631  0.000  0.267
  0.000  0.631  0.102  0.267  0.000
    occupations:
  0.177 -0.000 -0.000 -0.000 -0.000
 -0.000  0.302 -0.000 -0.054  0.040
 -0.000 -0.000  0.302  0.040  0.054
 -0.000 -0.054  0.040  0.231  0.000
 -0.000  0.040  0.054  0.000  0.231
   spin  2
    eigenvalues: 
  0.970  0.970  0.991  0.992  0.992
    eigenvectors:
  0.000  0.000  1.000  0.000  0.000
  0.479  0.173  0.000  0.298  0.050
  0.173  0.479  0.000  0.050  0.298
  0.004  0.344  0.000  0.044  0.608
  0.344  0.004  0.000  0.608  0.044
    occupations:
  0.991 -0.000 -0.000 -0.000 -0.000
 -0.000  0.978 -0.000  0.007 -0.009
 -0.000 -0.000  0.978 -0.009 -0.007
 -0.000  0.007 -0.009  0.985  0.000
 -0.000 -0.009 -0.007  0.000  0.985
atomic mag. moment =  -3.67302
atom    3   Tr[ns(na)] (up, down, total) =   1.26069  4.92022  6.18092
   spin  1
    eigenvalues: 
  0.196  0.196  0.206  0.331  0.331
    eigenvectors:
  0.000  0.000  1.000  0.000  0.000
  0.363  0.236  0.000  0.297  0.104
  0.236  0.363  0.000  0.104  0.297
  0.024  0.377  0.000  0.087  0.512
  0.377  0.024  0.000  0.512  0.087
    occupations:
  0.206 -0.000 -0.000 -0.000 -0.000
 -0.000  0.250 -0.000 -0.053  0.040
 -0.000 -0.000  0.250  0.040  0.053
 -0.000 -0.053  0.040  0.277  0.000
 -0.000  0.040  0.053  0.000  0.277
   spin  2
    eigenvalues: 
  0.974  0.974  0.990  0.991  0.991
    eigenvectors:
  0.000  0.000  1.000  0.000  0.000
  0.455  0.089  0.000  0.341  0.115
  0.089  0.455  0.000  0.115  0.341
  0.044  0.412  0.000  0.022  0.522
  0.412  0.044  0.000  0.522  0.022
    occupations:
  0.990 -0.000 -0.000 -0.000 -0.000
 -0.000  0.982 -0.000  0.006 -0.006
 -0.000 -0.000  0.982 -0.006 -0.006
 -0.000  0.006 -0.006  0.983  0.000
 -0.000 -0.006 -0.006  0.000  0.983
atomic mag. moment =  -3.65953
atom    4   Tr[ns(na)] (up, down, total) =   4.92035  1.26066  6.18101
   spin  1
    eigenvalues: 
  0.974  0.974  0.990  0.991  0.991
    eigenvectors:
  0.000  0.000  1.000  0.000  0.000
  0.010  0.533  0.000  0.050  0.406
  0.533  0.010  0.000  0.406  0.050
  0.190  0.267  0.000  0.126  0.418
  0.267  0.190  0.000  0.418  0.126
    occupations:
  0.990 -0.000 -0.000 -0.000 -0.000
 -0.000  0.982 -0.000 -0.006 -0.006
 -0.000 -0.000  0.982 -0.006  0.006
 -0.000 -0.006 -0.006  0.983  0.000
 -0.000 -0.006  0.006  0.000  0.983
   spin  2
    eigenvalues: 
  0.196  0.196  0.206  0.331  0.331
    eigenvectors:
  0.000  0.000  1.000  0.000  0.000
  0.001  0.598  0.000  0.001  0.399
  0.598  0.001  0.000  0.399  0.001
  0.159  0.242  0.000  0.182  0.417
  0.242  0.159  0.000  0.417  0.182
    occupations:
  0.206 -0.000 -0.000 -0.000 -0.000
 -0.000  0.250 -0.000  0.053  0.040
 -0.000 -0.000  0.250  0.040 -0.053
 -0.000  0.053  0.040  0.277  0.000
 -0.000  0.040 -0.053  0.000  0.277
atomic mag. moment =   3.65970
atom    5   Tr[ns(na)] (up, down, total) =   4.96253  1.13921  6.10174
   spin  1
    eigenvalues: 
  0.990  0.990  0.993  0.994  0.994
    eigenvectors:
  0.000  0.000  1.000  0.000  0.000
  0.338  0.003  0.000  0.445  0.213
  0.003  0.338  0.000  0.213  0.445
  0.143  0.515  0.000  0.000  0.341
  0.515  0.143  0.000  0.341  0.000
    occupations:
  0.993 -0.000 -0.000 -0.000 -0.000
 -0.000  0.993 -0.000  0.001 -0.002
 -0.000 -0.000  0.993 -0.002 -0.001
 -0.000  0.001 -0.002  0.992  0.000
 -0.000 -0.002 -0.001  0.000  0.992
   spin  2
    eigenvalues: 
  0.166  0.172  0.172  0.315  0.315
    eigenvectors:
  1.000  0.000  0.000  0.000  0.000
  0.000  0.367  0.021  0.586  0.026
  0.000  0.021  0.367  0.026  0.586
  0.000  0.060  0.552  0.044  0.344
  0.000  0.552  0.060  0.344  0.044
    occupations:
  0.166 -0.000 -0.000 -0.000 -0.000
 -0.000  0.259 -0.000 -0.037  0.059
 -0.000 -0.000  0.259  0.059  0.037
 -0.000 -0.037  0.059  0.227  0.000
 -0.000  0.059  0.037  0.000  0.227
atomic mag. moment =   3.82332
atom    6   Tr[ns(na)] (up, down, total) =   4.91531  1.24379  6.15910
   spin  1
    eigenvalues: 
  0.970  0.970  0.991  0.992  0.992
    eigenvectors:
  0.000  0.000  1.000  0.000  0.000
  0.009  0.643  0.000  0.071  0.277
  0.643  0.009  0.000  0.277  0.071
  0.180  0.168  0.000  0.124  0.528
  0.168  0.180  0.000  0.528  0.124
    occupations:
  0.991 -0.000 -0.000 -0.000 -0.000
 -0.000  0.978 -0.000 -0.007 -0.009
 -0.000 -0.000  0.978 -0.009  0.007
 -0.000 -0.007 -0.009  0.985  0.000
 -0.000 -0.009  0.007  0.000  0.985
   spin  2
    eigenvalues: 
  0.177  0.191  0.191  0.342  0.342
    eigenvectors:
  1.000  0.000  0.000  0.000  0.000
  0.000  0.005  0.262  0.005  0.729
  0.000  0.262  0.005  0.729  0.005
  0.000  0.173  0.561  0.116  0.150
  0.000  0.561  0.173  0.150  0.116
    occupations:
  0.177 -0.000 -0.000 -0.000 -0.000
 -0.000  0.302 -0.000  0.054  0.040
 -0.000 -0.000  0.302  0.040 -0.054
 -0.000  0.054  0.040  0.231  0.000
 -0.000  0.040 -0.054  0.000  0.231
atomic mag. moment =   3.67152
N of occupied +U levels =   36.880252
 --- exit write_ns ---

     negative rho (up, down):  1.235E-01 1.235E-01
 --- in v_hubbard ---
Hubbard energy    0.1356
 -------

     total cpu time spent up to now is     1340.2 secs

     total energy              =   -3194.90205190 Ry
     estimated scf accuracy    <       0.00002998 Ry

     total magnetization       =    -0.00 Bohr mag/cell
     absolute magnetization    =    27.35 Bohr mag/cell

     iteration #  6     ecut=    35.00 Ry     beta= 0.40
     CG style diagonalization
     ethr =  1.02E-08,  avg # of iterations =  3.0
 --- enter write_ns ---
 LDA+U parameters:
alpha( 3) =  0.05000000
alpha( 4) =  0.05000000
atom    1   Tr[ns(na)] (up, down, total) =   1.13844  4.96260  6.10104
   spin  1
    eigenvalues: 
  0.165  0.172  0.172  0.315  0.315
    eigenvectors:
  1.000  0.000  0.000  0.000  0.000
  0.000  0.079  0.309  0.025  0.587
  0.000  0.309  0.079  0.587  0.025
  0.000  0.166  0.446  0.204  0.184
  0.000  0.446  0.166  0.184  0.204
    occupations:
  0.165 -0.000 -0.000 -0.000 -0.000
 -0.000  0.260 -0.000  0.037  0.059
 -0.000 -0.000  0.260  0.059 -0.037
 -0.000  0.037  0.059  0.227  0.000
 -0.000  0.059 -0.037  0.000  0.227
   spin  2
    eigenvalues: 
  0.990  0.990  0.993  0.994  0.994
    eigenvectors:
  0.000  0.000  1.000  0.000  0.000
  0.043  0.295  0.000  0.047  0.615
  0.295  0.043  0.000  0.615  0.047
  0.225  0.437  0.000  0.147  0.192
  0.437  0.225  0.000  0.192  0.147
    occupations:
  0.993 -0.000 -0.000 -0.000 -0.000
 -0.000  0.993 -0.000 -0.001 -0.002
 -0.000 -0.000  0.993 -0.002  0.001
 -0.000 -0.001 -0.002  0.992  0.000
 -0.000 -0.002  0.001  0.000  0.992
atomic mag. moment =  -3.82415
atom    2   Tr[ns(na)] (up, down, total) =   1.24330  4.91554  6.15884
   spin  1
    eigenvalues: 
  0.177  0.191  0.191  0.342  0.342
    eigenvectors:
  1.000  0.000  0.000  0.000  0.000
  0.000  0.195  0.072  0.243  0.490
  0.000  0.072  0.195  0.490  0.243
  0.000  0.102  0.631  0.000  0.267
  0.000  0.631  0.102  0.267  0.000
    occupations:
  0.177 -0.000 -0.000 -0.000 -0.000
 -0.000  0.302 -0.000 -0.054  0.040
 -0.000 -0.000  0.302  0.040  0.054
 -0.000 -0.054  0.040  0.231  0.000
 -0.000  0.040  0.054  0.000  0.231
   spin  2
    eigenvalues: 
  0.970  0.970  0.991  0.992  0.992
    eigenvectors:
  0.000  0.000  1.000  0.000  0.000
  0.479  0.173  0.000  0.299  0.049
  0.173  0.479  0.000  0.049  0.299
  0.004  0.344  0.000  0.044  0.608
  0.344  0.004  0.000  0.608  0.044
    occupations:
  0.991 -0.000 -0.000 -0.000 -0.000
 -0.000  0.978 -0.000  0.007 -0.009
 -0.000 -0.000  0.978 -0.009 -0.007
 -0.000  0.007 -0.009  0.985  0.000
 -0.000 -0.009 -0.007  0.000  0.985
atomic mag. moment =  -3.67224
atom    3   Tr[ns(na)] (up, down, total) =   1.26037  4.92025  6.18062
   spin  1
    eigenvalues: 
  0.196  0.196  0.206  0.331  0.331
    eigenvectors:
  0.000  0.000  1.000  0.000  0.000
  0.363  0.236  0.000  0.297  0.104
  0.236  0.363  0.000  0.104  0.297
  0.024  0.377  0.000  0.087  0.512
  0.377  0.024  0.000  0.512  0.087
    occupations:
  0.206 -0.000 -0.000 -0.000 -0.000
 -0.000  0.250 -0.000 -0.053  0.040
 -0.000 -0.000  0.250  0.040  0.053
 -0.000 -0.053  0.040  0.277  0.000
 -0.000  0.040  0.053  0.000  0.277
   spin  2
    eigenvalues: 
  0.974  0.974  0.990  0.991  0.991
    eigenvectors:
  0.000  0.000  1.000  0.000  0.000
  0.455  0.088  0.000  0.341  0.116
  0.088  0.455  0.000  0.116  0.341
  0.044  0.412  0.000  0.022  0.521
  0.412  0.044  0.000  0.521  0.022
    occupations:
  0.990 -0.000 -0.000 -0.000 -0.000
 -0.000  0.982 -0.000  0.006 -0.006
 -0.000 -0.000  0.982 -0.006 -0.006
 -0.000  0.006 -0.006  0.983  0.000
 -0.000 -0.006 -0.006  0.000  0.983
atomic mag. moment =  -3.65988
atom    4   Tr[ns(na)] (up, down, total) =   4.92012  1.25895  6.17906
   spin  1
    eigenvalues: 
  0.974  0.974  0.990  0.991  0.991
    eigenvectors:
  0.000  0.000  1.000  0.000  0.000
  0.010  0.534  0.000  0.050  0.406
  0.534  0.010  0.000  0.406  0.050
  0.190  0.266  0.000  0.126  0.418
  0.266  0.190  0.000  0.418  0.126
    occupations:
  0.990 -0.000 -0.000 -0.000 -0.000
 -0.000  0.982 -0.000 -0.006 -0.006
 -0.000 -0.000  0.982 -0.006  0.006
 -0.000 -0.006 -0.006  0.983  0.000
 -0.000 -0.006  0.006  0.000  0.983
   spin  2
    eigenvalues: 
  0.196  0.196  0.206  0.331  0.331
    eigenvectors:
  0.000  0.000  1.000  0.000  0.000
  0.001  0.598  0.000  0.001  0.400
  0.598  0.001  0.000  0.400  0.001
  0.159  0.243  0.000  0.183  0.416
  0.243  0.159  0.000  0.416  0.183
    occupations:
  0.206 -0.000 -0.000 -0.000 -0.000
 -0.000  0.250 -0.000  0.053  0.040
 -0.000 -0.000  0.250  0.040 -0.053
 -0.000  0.053  0.040  0.277  0.000
 -0.000  0.040 -0.053  0.000  0.277
atomic mag. moment =   3.66117
atom    5   Tr[ns(na)] (up, down, total) =   4.96261  1.14054  6.10316
   spin  1
    eigenvalues: 
  0.990  0.990  0.993  0.994  0.994
    eigenvectors:
  0.000  0.000  1.000  0.000  0.000
  0.336  0.003  0.000  0.446  0.215
  0.003  0.336  0.000  0.215  0.446
  0.144  0.517  0.000  0.000  0.339
  0.517  0.144  0.000  0.339  0.000
    occupations:
  0.993 -0.000 -0.000 -0.000 -0.000
 -0.000  0.993 -0.000  0.001 -0.002
 -0.000 -0.000  0.993 -0.002 -0.001
 -0.000  0.001 -0.002  0.992  0.000
 -0.000 -0.002 -0.001  0.000  0.992
   spin  2
    eigenvalues: 
  0.166  0.172  0.172  0.315  0.315
    eigenvectors:
  1.000  0.000  0.000  0.000  0.000
  0.000  0.367  0.021  0.586  0.026
  0.000  0.021  0.367  0.026  0.586
  0.000  0.059  0.553  0.044  0.344
  0.000  0.553  0.059  0.344  0.044
    occupations:
  0.166 -0.000 -0.000 -0.000 -0.000
 -0.000  0.260 -0.000 -0.037  0.059
 -0.000 -0.000  0.260  0.059  0.037
 -0.000 -0.037  0.059  0.228  0.000
 -0.000  0.059  0.037  0.000  0.228
atomic mag. moment =   3.82207
atom    6   Tr[ns(na)] (up, down, total) =   4.91535  1.24363  6.15898
   spin  1
    eigenvalues: 
  0.970  0.970  0.991  0.992  0.992
    eigenvectors:
  0.000  0.000  1.000  0.000  0.000
  0.009  0.643  0.000  0.071  0.277
  0.643  0.009  0.000  0.277  0.071
  0.180  0.168  0.000  0.125  0.528
  0.168  0.180  0.000  0.528  0.125
    occupations:
  0.991 -0.000 -0.000 -0.000 -0.000
 -0.000  0.978 -0.000 -0.007 -0.009
 -0.000 -0.000  0.978 -0.009  0.007
 -0.000 -0.007 -0.009  0.985  0.000
 -0.000 -0.009  0.007  0.000  0.985
   spin  2
    eigenvalues: 
  0.177  0.191  0.191  0.342  0.342
    eigenvectors:
  1.000  0.000  0.000  0.000  0.000
  0.000  0.005  0.262  0.005  0.729
  0.000  0.262  0.005  0.729  0.005
  0.000  0.173  0.561  0.116  0.151
  0.000  0.561  0.173  0.151  0.116
    occupations:
  0.177 -0.000 -0.000 -0.000 -0.000
 -0.000  0.302 -0.000  0.054  0.040
 -0.000 -0.000  0.302  0.040 -0.054
 -0.000  0.054  0.040  0.231  0.000
 -0.000  0.040 -0.054  0.000  0.231
atomic mag. moment =   3.67173
N of occupied +U levels =   36.881700
 --- exit write_ns ---

     negative rho (up, down):  1.235E-01 1.235E-01
 --- in v_hubbard ---
Hubbard energy    0.1356
 -------

     total cpu time spent up to now is     1470.2 secs

     total energy              =   -3194.90205322 Ry
     estimated scf accuracy    <       0.00001970 Ry

     total magnetization       =    -0.00 Bohr mag/cell
     absolute magnetization    =    27.35 Bohr mag/cell

     iteration #  7     ecut=    35.00 Ry     beta= 0.40
     CG style diagonalization
     ethr =  6.70E-09,  avg # of iterations =  3.0
 --- enter write_ns ---
 LDA+U parameters:
alpha( 3) =  0.05000000
alpha( 4) =  0.05000000
atom    1   Tr[ns(na)] (up, down, total) =   1.13858  4.96255  6.10114
   spin  1
    eigenvalues: 
  0.165  0.172  0.172  0.315  0.315
    eigenvectors:
  1.000  0.000  0.000  0.000  0.000
  0.000  0.079  0.308  0.025  0.587
  0.000  0.308  0.079  0.587  0.025
  0.000  0.166  0.446  0.205  0.183
  0.000  0.446  0.166  0.183  0.205
    occupations:
  0.165 -0.000 -0.000 -0.000 -0.000
 -0.000  0.259 -0.000  0.037  0.059
 -0.000 -0.000  0.259  0.059 -0.037
 -0.000  0.037  0.059  0.227  0.000
 -0.000  0.059 -0.037  0.000  0.227
   spin  2
    eigenvalues: 
  0.990  0.990  0.993  0.994  0.994
    eigenvectors:
  0.000  0.000  1.000  0.000  0.000
  0.043  0.297  0.000  0.048  0.612
  0.297  0.043  0.000  0.612  0.048
  0.225  0.435  0.000  0.146  0.194
  0.435  0.225  0.000  0.194  0.146
    occupations:
  0.993 -0.000 -0.000 -0.000 -0.000
 -0.000  0.993 -0.000 -0.001 -0.002
 -0.000 -0.000  0.993 -0.002  0.001
 -0.000 -0.001 -0.002  0.992  0.000
 -0.000 -0.002  0.001  0.000  0.992
atomic mag. moment =  -3.82397
atom    2   Tr[ns(na)] (up, down, total) =   1.24222  4.91520  6.15742
   spin  1
    eigenvalues: 
  0.177  0.190  0.190  0.342  0.342
    eigenvectors:
  1.000  0.000  0.000  0.000  0.000
  0.000  0.195  0.072  0.243  0.490
  0.000  0.072  0.195  0.490  0.243
  0.000  0.102  0.631  0.000  0.267
  0.000  0.631  0.102  0.267  0.000
    occupations:
  0.177 -0.000 -0.000 -0.000 -0.000
 -0.000  0.302 -0.000 -0.054  0.040
 -0.000 -0.000  0.302  0.040  0.054
 -0.000 -0.054  0.040  0.231  0.000
 -0.000  0.040  0.054  0.000  0.231
   spin  2
    eigenvalues: 
  0.970  0.970  0.991  0.992  0.992
    eigenvectors:
  0.000  0.000  1.000  0.000  0.000
  0.480  0.172  0.000  0.299  0.049
  0.172  0.480  0.000  0.049  0.299
  0.004  0.344  0.000  0.044  0.608
  0.344  0.004  0.000  0.608  0.044
    occupations:
  0.991 -0.000 -0.000 -0.000 -0.000
 -0.000  0.978 -0.000  0.007 -0.009
 -0.000 -0.000  0.978 -0.009 -0.007
 -0.000  0.007 -0.009  0.985  0.000
 -0.000 -0.009 -0.007  0.000  0.985
atomic mag. moment =  -3.67297
atom    3   Tr[ns(na)] (up, down, total) =   1.26187  4.92051  6.18238
   spin  1
    eigenvalues: 
  0.197  0.197  0.206  0.331  0.331
    eigenvectors:
  0.000  0.000  1.000  0.000  0.000
  0.362  0.237  0.000  0.297  0.104
  0.237  0.362  0.000  0.104  0.297
  0.024  0.377  0.000  0.088  0.512
  0.377  0.024  0.000  0.512  0.088
    occupations:
  0.206 -0.000 -0.000 -0.000 -0.000
 -0.000  0.251 -0.000 -0.053  0.040
 -0.000 -0.000  0.251  0.040  0.053
 -0.000 -0.053  0.040  0.277  0.000
 -0.000  0.040  0.053  0.000  0.277
   spin  2
    eigenvalues: 
  0.974  0.974  0.990  0.991  0.991
    eigenvectors:
  0.000  0.000  1.000  0.000  0.000
  0.455  0.088  0.000  0.341  0.116
  0.088  0.455  0.000  0.116  0.341
  0.044  0.412  0.000  0.022  0.521
  0.412  0.044  0.000  0.521  0.022
    occupations:
  0.990 -0.000 -0.000 -0.000 -0.000
 -0.000  0.982 -0.000  0.006 -0.006
 -0.000 -0.000  0.982 -0.006 -0.006
 -0.000  0.006 -0.006  0.983  0.000
 -0.000 -0.006 -0.006  0.000  0.983
atomic mag. moment =  -3.65864
atom    4   Tr[ns(na)] (up, down, total) =   4.92047  1.26112  6.18160
   spin  1
    eigenvalues: 
  0.974  0.974  0.990  0.991  0.991
    eigenvectors:
  0.000  0.000  1.000  0.000  0.000
  0.010  0.533  0.000  0.050  0.407
  0.533  0.010  0.000  0.407  0.050
  0.190  0.267  0.000  0.126  0.417
  0.267  0.190  0.000  0.417  0.126
    occupations:
  0.990 -0.000 -0.000 -0.000 -0.000
 -0.000  0.982 -0.000 -0.006 -0.006
 -0.000 -0.000  0.982 -0.006  0.006
 -0.000 -0.006 -0.006  0.983  0.000
 -0.000 -0.006  0.006  0.000  0.983
   spin  2
    eigenvalues: 
  0.196  0.196  0.206  0.331  0.331
    eigenvectors:
  0.000  0.000  1.000  0.000  0.000
  0.001  0.598  0.000  0.001  0.399
  0.598  0.001  0.000  0.399  0.001
  0.158  0.243  0.000  0.182  0.417
  0.243  0.158  0.000  0.417  0.182
    occupations:
  0.206 -0.000 -0.000 -0.000 -0.000
 -0.000  0.250 -0.000  0.053  0.040
 -0.000 -0.000  0.250  0.040 -0.053
 -0.000  0.053  0.040  0.277  0.000
 -0.000  0.040 -0.053  0.000  0.277
atomic mag. moment =   3.65935
atom    5   Tr[ns(na)] (up, down, total) =   4.96256  1.13982  6.10238
   spin  1
    eigenvalues: 
  0.990  0.990  0.993  0.994  0.994
    eigenvectors:
  0.000  0.000  1.000  0.000  0.000
  0.338  0.003  0.000  0.446  0.213
  0.003  0.338  0.000  0.213  0.446
  0.143  0.516  0.000  0.000  0.341
  0.516  0.143  0.000  0.341  0.000
    occupations:
  0.993 -0.000 -0.000 -0.000 -0.000
 -0.000  0.993 -0.000  0.001 -0.002
 -0.000 -0.000  0.993 -0.002 -0.001
 -0.000  0.001 -0.002  0.992  0.000
 -0.000 -0.002 -0.001  0.000  0.992
   spin  2
    eigenvalues: 
  0.166  0.172  0.172  0.315  0.315
    eigenvectors:
  1.000  0.000  0.000  0.000  0.000
  0.000  0.367  0.021  0.585  0.027
  0.000  0.021  0.367  0.027  0.585
  0.000  0.059  0.553  0.044  0.344
  0.000  0.553  0.059  0.344  0.044
    occupations:
  0.166 -0.000 -0.000 -0.000 -0.000
 -0.000  0.260 -0.000 -0.037  0.059
 -0.000 -0.000  0.260  0.059  0.037
 -0.000 -0.037  0.059  0.227  0.000
 -0.000  0.059  0.037  0.000  0.227
atomic mag. moment =   3.82275
atom    6   Tr[ns(na)] (up, down, total) =   4.91514  1.24293  6.15806
   spin  1
    eigenvalues: 
  0.970  0.970  0.991  0.992  0.992
    eigenvectors:
  0.000  0.000  1.000  0.000  0.000
  0.009  0.643  0.000  0.071  0.277
  0.643  0.009  0.000  0.277  0.071
  0.180  0.168  0.000  0.125  0.527
  0.168  0.180  0.000  0.527  0.125
    occupations:
  0.991 -0.000 -0.000 -0.000 -0.000
 -0.000  0.978 -0.000 -0.007 -0.009
 -0.000 -0.000  0.978 -0.009  0.007
 -0.000 -0.007 -0.009  0.985  0.000
 -0.000 -0.009  0.007  0.000  0.985
   spin  2
    eigenvalues: 
  0.177  0.191  0.191  0.342  0.342
    eigenvectors:
  1.000  0.000  0.000  0.000  0.000
  0.000  0.005  0.262  0.004  0.729
  0.000  0.262  0.005  0.729  0.004
  0.000  0.172  0.561  0.116  0.151
  0.000  0.561  0.172  0.151  0.116
    occupations:
  0.177 -0.000 -0.000 -0.000 -0.000
 -0.000  0.302 -0.000  0.054  0.040
 -0.000 -0.000  0.302  0.040 -0.054
 -0.000  0.054  0.040  0.231  0.000
 -0.000  0.040 -0.054  0.000  0.231
atomic mag. moment =   3.67221
N of occupied +U levels =   36.882978
 --- exit write_ns ---

     negative rho (up, down):  1.235E-01 1.235E-01
 --- in v_hubbard ---
Hubbard energy    0.1356
 -------

     total cpu time spent up to now is     1595.8 secs

     total energy              =   -3194.90205337 Ry
     estimated scf accuracy    <       0.00001683 Ry

     total magnetization       =    -0.00 Bohr mag/cell
     absolute magnetization    =    27.35 Bohr mag/cell

     iteration #  8     ecut=    35.00 Ry     beta= 0.40
     CG style diagonalization
     ethr =  5.73E-09,  avg # of iterations =  3.0
 --- enter write_ns ---
 LDA+U parameters:
alpha( 3) =  0.05000000
alpha( 4) =  0.05000000
atom    1   Tr[ns(na)] (up, down, total) =   1.13966  4.96256  6.10222
   spin  1
    eigenvalues: 
  0.165  0.172  0.172  0.315  0.315
    eigenvectors:
  1.000  0.000  0.000  0.000  0.000
  0.000  0.079  0.309  0.025  0.587
  0.000  0.309  0.079  0.587  0.025
  0.000  0.166  0.446  0.205  0.183
  0.000  0.446  0.166  0.183  0.205
    occupations:
  0.165 -0.000 -0.000 -0.000 -0.000
 -0.000  0.260 -0.000  0.037  0.059
 -0.000 -0.000  0.260  0.059 -0.037
 -0.000  0.037  0.059  0.227  0.000
 -0.000  0.059 -0.037  0.000  0.227
   spin  2
    eigenvalues: 
  0.990  0.990  0.993  0.994  0.994
    eigenvectors:
  0.000  0.000  1.000  0.000  0.000
  0.043  0.297  0.000  0.048  0.612
  0.297  0.043  0.000  0.612  0.048
  0.225  0.435  0.000  0.145  0.195
  0.435  0.225  0.000  0.195  0.145
    occupations:
  0.993 -0.000 -0.000 -0.000 -0.000
 -0.000  0.993 -0.000 -0.001 -0.002
 -0.000 -0.000  0.993 -0.002  0.001
 -0.000 -0.001 -0.002  0.992  0.000
 -0.000 -0.002  0.001  0.000  0.992
atomic mag. moment =  -3.82290
atom    2   Tr[ns(na)] (up, down, total) =   1.24398  4.91552  6.15950
   spin  1
    eigenvalues: 
  0.178  0.191  0.191  0.342  0.342
    eigenvectors:
  1.000  0.000  0.000  0.000  0.000
  0.000  0.195  0.072  0.242  0.491
  0.000  0.072  0.195  0.491  0.242
  0.000  0.102  0.631  0.000  0.266
  0.000  0.631  0.102  0.266  0.000
    occupations:
  0.178 -0.000 -0.000 -0.000 -0.000
 -0.000  0.302 -0.000 -0.054  0.040
 -0.000 -0.000  0.302  0.040  0.054
 -0.000 -0.054  0.040  0.231  0.000
 -0.000  0.040  0.054  0.000  0.231
   spin  2
    eigenvalues: 
  0.970  0.970  0.991  0.992  0.992
    eigenvectors:
  0.000  0.000  1.000  0.000  0.000
  0.479  0.173  0.000  0.298  0.050
  0.173  0.479  0.000  0.050  0.298
  0.004  0.344  0.000  0.044  0.608
  0.344  0.004  0.000  0.608  0.044
    occupations:
  0.991 -0.000 -0.000 -0.000 -0.000
 -0.000  0.978 -0.000  0.007 -0.009
 -0.000 -0.000  0.978 -0.009 -0.007
 -0.000  0.007 -0.009  0.985  0.000
 -0.000 -0.009 -0.007  0.000  0.985
atomic mag. moment =  -3.67154
atom    3   Tr[ns(na)] (up, down, total) =   1.25981  4.92015  6.17996
   spin  1
    eigenvalues: 
  0.196  0.196  0.206  0.331  0.331
    eigenvectors:
  0.000  0.000  1.000  0.000  0.000
  0.363  0.235  0.000  0.298  0.104
  0.235  0.363  0.000  0.104  0.298
  0.024  0.378  0.000  0.087  0.511
  0.378  0.024  0.000  0.511  0.087
    occupations:
  0.206 -0.000 -0.000 -0.000 -0.000
 -0.000  0.250 -0.000 -0.053  0.040
 -0.000 -0.000  0.250  0.040  0.053
 -0.000 -0.053  0.040  0.277  0.000
 -0.000  0.040  0.053  0.000  0.277
   spin  2
    eigenvalues: 
  0.974  0.974  0.990  0.991  0.991
    eigenvectors:
  0.000  0.000  1.000  0.000  0.000
  0.456  0.088  0.000  0.341  0.115
  0.088  0.456  0.000  0.115  0.341
  0.044  0.411  0.000  0.022  0.522
  0.411  0.044  0.000  0.522  0.022
    occupations:
  0.990 -0.000 -0.000 -0.000 -0.000
 -0.000  0.982 -0.000  0.006 -0.006
 -0.000 -0.000  0.982 -0.006 -0.006
 -0.000  0.006 -0.006  0.983  0.000
 -0.000 -0.006 -0.006  0.000  0.983
atomic mag. moment =  -3.66034
atom    4   Tr[ns(na)] (up, down, total) =   4.92028  1.26020  6.18048
   spin  1
    eigenvalues: 
  0.974  0.974  0.990  0.991  0.991
    eigenvectors:
  0.000  0.000  1.000  0.000  0.000
  0.010  0.534  0.000  0.050  0.406
  0.534  0.010  0.000  0.406  0.050
  0.190  0.266  0.000  0.126  0.418
  0.266  0.190  0.000  0.418  0.126
    occupations:
  0.990 -0.000 -0.000 -0.000 -0.000
 -0.000  0.982 -0.000 -0.006 -0.006
 -0.000 -0.000  0.982 -0.006  0.006
 -0.000 -0.006 -0.006  0.983  0.000
 -0.000 -0.006  0.006  0.000  0.983
   spin  2
    eigenvalues: 
  0.196  0.196  0.206  0.331  0.331
    eigenvectors:
  0.000  0.000  1.000  0.000  0.000
  0.001  0.598  0.000  0.001  0.400
  0.598  0.001  0.000  0.400  0.001
  0.159  0.243  0.000  0.183  0.416
  0.243  0.159  0.000  0.416  0.183
    occupations:
  0.206 -0.000 -0.000 -0.000 -0.000
 -0.000  0.250 -0.000  0.053  0.040
 -0.000 -0.000  0.250  0.040 -0.053
 -0.000  0.053  0.040  0.277  0.000
 -0.000  0.040 -0.053  0.000  0.277
atomic mag. moment =   3.66008
atom    5   Tr[ns(na)] (up, down, total) =   4.96257  1.13898  6.10155
   spin  1
    eigenvalues: 
  0.990  0.990  0.993  0.994  0.994
    eigenvectors:
  0.000  0.000  1.000  0.000  0.000
  0.336  0.003  0.000  0.445  0.215
  0.003  0.336  0.000  0.215  0.445
  0.143  0.517  0.000  0.000  0.339
  0.517  0.143  0.000  0.339  0.000
    occupations:
  0.993 -0.000 -0.000 -0.000 -0.000
 -0.000  0.993 -0.000  0.001 -0.002
 -0.000 -0.000  0.993 -0.002 -0.001
 -0.000  0.001 -0.002  0.992  0.000
 -0.000 -0.002 -0.001  0.000  0.992
   spin  2
    eigenvalues: 
  0.165  0.172  0.172  0.315  0.315
    eigenvectors:
  1.000  0.000  0.000  0.000  0.000
  0.000  0.367  0.021  0.585  0.027
  0.000  0.021  0.367  0.027  0.585
  0.000  0.059  0.553  0.044  0.344
  0.000  0.553  0.059  0.344  0.044
    occupations:
  0.165 -0.000 -0.000 -0.000 -0.000
 -0.000  0.260 -0.000 -0.037  0.059
 -0.000 -0.000  0.260  0.059  0.037
 -0.000 -0.037  0.059  0.227  0.000
 -0.000  0.059  0.037  0.000  0.227
atomic mag. moment =   3.82359
atom    6   Tr[ns(na)] (up, down, total) =   4.91564  1.24451  6.16015
   spin  1
    eigenvalues: 
  0.970  0.970  0.991  0.992  0.992
    eigenvectors:
  0.000  0.000  1.000  0.000  0.000
  0.009  0.643  0.000  0.071  0.277
  0.643  0.009  0.000  0.277  0.071
  0.180  0.168  0.000  0.125  0.527
  0.168  0.180  0.000  0.527  0.125
    occupations:
  0.991 -0.000 -0.000 -0.000 -0.000
 -0.000  0.978 -0.000 -0.007 -0.009
 -0.000 -0.000  0.978 -0.009  0.007
 -0.000 -0.007 -0.009  0.985  0.000
 -0.000 -0.009  0.007  0.000  0.985
   spin  2
    eigenvalues: 
  0.178  0.191  0.191  0.343  0.343
    eigenvectors:
  1.000  0.000  0.000  0.000  0.000
  0.000  0.005  0.262  0.005  0.729
  0.000  0.262  0.005  0.729  0.005
  0.000  0.172  0.562  0.116  0.151
  0.000  0.562  0.172  0.151  0.116
    occupations:
  0.178 -0.000 -0.000 -0.000 -0.000
 -0.000  0.302 -0.000  0.054  0.040
 -0.000 -0.000  0.302  0.040 -0.054
 -0.000  0.054  0.040  0.231  0.000
 -0.000  0.040 -0.054  0.000  0.231
atomic mag. moment =   3.67113
N of occupied +U levels =   36.883862
 --- exit write_ns ---

     negative rho (up, down):  1.235E-01 1.235E-01
 --- in v_hubbard ---
Hubbard energy    0.1356
 -------

     total cpu time spent up to now is     1740.1 secs

     total energy              =   -3194.90205418 Ry
     estimated scf accuracy    <       0.00001051 Ry

     total magnetization       =     0.00 Bohr mag/cell
     absolute magnetization    =    27.35 Bohr mag/cell

     iteration #  9     ecut=    35.00 Ry     beta= 0.40
     CG style diagonalization
     ethr =  3.57E-09,  avg # of iterations =  3.0
 --- enter write_ns ---
 LDA+U parameters:
alpha( 3) =  0.05000000
alpha( 4) =  0.05000000
atom    1   Tr[ns(na)] (up, down, total) =   1.13997  4.96267  6.10264
   spin  1
    eigenvalues: 
  0.165  0.172  0.172  0.315  0.315
    eigenvectors:
  1.000  0.000  0.000  0.000  0.000
  0.000  0.080  0.308  0.025  0.587
  0.000  0.308  0.080  0.587  0.025
  0.000  0.166  0.446  0.205  0.183
  0.000  0.446  0.166  0.183  0.205
    occupations:
  0.165 -0.000 -0.000 -0.000 -0.000
 -0.000  0.260 -0.000  0.037  0.059
 -0.000 -0.000  0.260  0.059 -0.037
 -0.000  0.037  0.059  0.228  0.000
 -0.000  0.059 -0.037  0.000  0.228
   spin  2
    eigenvalues: 
  0.990  0.990  0.993  0.994  0.994
    eigenvectors:
  0.000  0.000  1.000  0.000  0.000
  0.043  0.296  0.000  0.048  0.613
  0.296  0.043  0.000  0.613  0.048
  0.225  0.436  0.000  0.146  0.193
  0.436  0.225  0.000  0.193  0.146
    occupations:
  0.993 -0.000 -0.000 -0.000 -0.000
 -0.000  0.993 -0.000 -0.001 -0.002
 -0.000 -0.000  0.993 -0.002  0.001
 -0.000 -0.001 -0.002  0.992  0.000
 -0.000 -0.002  0.001  0.000  0.992
atomic mag. moment =  -3.82270
atom    2   Tr[ns(na)] (up, down, total) =   1.24312  4.91546  6.15859
   spin  1
    eigenvalues: 
  0.177  0.191  0.191  0.342  0.342
    eigenvectors:
  1.000  0.000  0.000  0.000  0.000
  0.000  0.195  0.072  0.243  0.490
  0.000  0.072  0.195  0.490  0.243
  0.000  0.101  0.631  0.000  0.267
  0.000  0.631  0.101  0.267  0.000
    occupations:
  0.177 -0.000 -0.000 -0.000 -0.000
 -0.000  0.302 -0.000 -0.054  0.040
 -0.000 -0.000  0.302  0.040  0.054
 -0.000 -0.054  0.040  0.231  0.000
 -0.000  0.040  0.054  0.000  0.231
   spin  2
    eigenvalues: 
  0.970  0.970  0.991  0.992  0.992
    eigenvectors:
  0.000  0.000  1.000  0.000  0.000
  0.481  0.171  0.000  0.298  0.050
  0.171  0.481  0.000  0.050  0.298
  0.004  0.344  0.000  0.044  0.608
  0.344  0.004  0.000  0.608  0.044
    occupations:
  0.991 -0.000 -0.000 -0.000 -0.000
 -0.000  0.978 -0.000  0.007 -0.009
 -0.000 -0.000  0.978 -0.009 -0.007
 -0.000  0.007 -0.009  0.985  0.000
 -0.000 -0.009 -0.007  0.000  0.985
atomic mag. moment =  -3.67234
atom    3   Tr[ns(na)] (up, down, total) =   1.26069  4.92046  6.18115
   spin  1
    eigenvalues: 
  0.196  0.196  0.206  0.331  0.331
    eigenvectors:
  0.000  0.000  1.000  0.000  0.000
  0.363  0.235  0.000  0.298  0.104
  0.235  0.363  0.000  0.104  0.298
  0.024  0.378  0.000  0.087  0.511
  0.378  0.024  0.000  0.511  0.087
    occupations:
  0.206 -0.000 -0.000 -0.000 -0.000
 -0.000  0.250 -0.000 -0.053  0.040
 -0.000 -0.000  0.250  0.040  0.053
 -0.000 -0.053  0.040  0.277  0.000
 -0.000  0.040  0.053  0.000  0.277
   spin  2
    eigenvalues: 
  0.974  0.974  0.990  0.991  0.991
    eigenvectors:
  0.000  0.000  1.000  0.000  0.000
  0.455  0.088  0.000  0.341  0.116
  0.088  0.455  0.000  0.116  0.341
  0.044  0.412  0.000  0.022  0.521
  0.412  0.044  0.000  0.521  0.022
    occupations:
  0.990 -0.000 -0.000 -0.000 -0.000
 -0.000  0.982 -0.000  0.006 -0.006
 -0.000 -0.000  0.982 -0.006 -0.006
 -0.000  0.006 -0.006  0.983  0.000
 -0.000 -0.006 -0.006  0.000  0.983
atomic mag. moment =  -3.65976
atom    4   Tr[ns(na)] (up, down, total) =   4.92051  1.26083  6.18134
   spin  1
    eigenvalues: 
  0.974  0.974  0.990  0.991  0.991
    eigenvectors:
  0.000  0.000  1.000  0.000  0.000
  0.010  0.533  0.000  0.050  0.407
  0.533  0.010  0.000  0.407  0.050
  0.190  0.267  0.000  0.126  0.418
  0.267  0.190  0.000  0.418  0.126
[...]
     atom:   29    charge:    5.2920    magn:    0.2032    constr:    0.0000
     atom:   30    charge:    5.2920    magn:    0.2032    constr:    0.0000

     total cpu time spent up to now is     2343.6 secs

     End of self-consistent calculation

 ------ SPIN UP ------------


          k = 0.0000 0.0000 0.0000 (  8497 PWs)   bands (ev):

   -78.5308 -78.2301 -78.1074 -73.5210 -73.4401 -73.3463 -44.5492 -44.4941
   -44.4941 -44.2219 -44.2218 -44.2117 -44.2088 -44.0472 -44.0472 -39.6714
   -39.6271 -39.6271 -39.5813 -39.5516 -39.5516 -39.5228 -39.4507 -39.4507
   -10.7159 -10.7158 -10.6924 -10.6924 -10.6778 -10.6651 -10.6486 -10.6486
   -10.6333 -10.6333 -10.6260 -10.6260 -10.6048 -10.6048 -10.5795 -10.5692
   -10.5582 -10.5582 -10.5491 -10.5491 -10.5325 -10.5325 -10.5270 -10.5198
   -10.5198 -10.5157 -10.4949 -10.4949 -10.4837 -10.4837  -7.3840  -6.9947
    -6.8603  -6.0443  -5.9637  -5.5930  -5.5928  -5.4940  -5.4939  -5.4276
    -5.4275  -5.4024  -5.3024  -5.3023  -5.1022  -5.1021  -4.9462  -4.9461
     1.5811   1.6972   1.7278   2.4181   2.5418   3.3196   5.4129   5.4129
     5.4797   5.9475   5.9476   6.0194   6.0729   6.0729   6.2415   6.3086
     6.3086   6.5187   6.5503   6.5525   6.5525   6.7045   6.7046   6.8689
     6.8690   6.9993   7.1289   7.2614   7.2614   7.6473   7.6474   7.6714
     7.8239   8.1829   8.1830   8.4096   8.5184   8.5184   8.6928   8.6928
     8.9161   9.1001   9.1002   9.1525   9.2610   9.2611   9.3301   9.4394
     9.4395   9.4471   9.5591   9.5591   9.7191   9.7191  10.0239  10.0240
    10.0694  10.0695  10.0906  10.1346  10.1346  10.4992  10.4992  10.6392
    10.8468  10.9839  11.0601  11.0601  11.1530  11.1799  11.2920  11.8934
    11.8935  12.6429  12.6429  12.9453  12.9453  13.1210  13.2012  13.2116
    13.2116  13.2408  13.3833  13.3833  14.2463  14.2463  14.9939  14.9940
    15.5119  15.6300  15.6301  15.7249  15.7851  15.9133  17.1351  17.1352
    17.1599  17.1599  17.2600  17.2600  17.5404  17.6053  17.6754  17.6754
    17.7328  17.7328  18.1479  18.1479  19.5712  20.5880  21.1228  21.2512
    21.5324  21.5324  22.0574  22.1957  22.5668  22.5668  22.6500  22.6500
    22.7701  22.7702  23.9876  23.9876  24.0550  24.0550  24.1591  24.3856

     occupation numbers 
     1.0000   1.0000   1.0000   1.0000   1.0000   1.0000   1.0000   1.0000
     1.0000   1.0000   1.0000   1.0000   1.0000   1.0000   1.0000   1.0000
     1.0000   1.0000   1.0000   1.0000   1.0000   1.0000   1.0000   1.0000
     1.0000   1.0000   1.0000   1.0000   1.0000   1.0000   1.0000   1.0000
     1.0000   1.0000   1.0000   1.0000   1.0000   1.0000   1.0000   1.0000
     1.0000   1.0000   1.0000   1.0000   1.0000   1.0000   1.0000   1.0000
     1.0000   1.0000   1.0000   1.0000   1.0000   1.0000   1.0000   1.0000
     1.0000   1.0000   1.0000   1.0000   1.0000   1.0000   1.0000   1.0000
     1.0000   1.0000   1.0000   1.0000   1.0000   1.0000   1.0000   1.0000
     1.0000   1.0000   1.0000   1.0000   1.0000   1.0000   1.0000   1.0000
     1.0000   1.0000   1.0000   1.0000   1.0000   1.0000   1.0000   1.0000
     1.0000   1.0000   1.0000   1.0000   1.0000   1.0000   1.0000   1.0000
     1.0000   1.0000   1.0000   1.0000   1.0000   1.0000   1.0000   1.0000
     1.0000   1.0000   1.0000   1.0000   1.0000   1.0000   1.0000   1.0000
     1.0000   1.0000   1.0000   1.0000   1.0000   1.0000   1.0000   1.0000
     1.0000   1.0000   1.0000   1.0000   1.0000   1.0000   1.0000   1.0000
     1.0000   1.0000   1.0000   1.0000   1.0000   1.0000   1.0000   1.0000
     1.0000   1.0000   1.0000   1.0000   1.0000   1.0000   1.0000   1.0000
     1.0000   1.0351   1.0351  -0.0291  -0.0291  -0.0023  -0.0001  -0.0001
    -0.0001  -0.0000  -0.0000  -0.0000  -0.0000  -0.0000  -0.0000  -0.0000
    -0.0000  -0.0000  -0.0000  -0.0000  -0.0000  -0.0000  -0.0000  -0.0000
    -0.0000  -0.0000  -0.0000  -0.0000  -0.0000  -0.0000  -0.0000  -0.0000
    -0.0000  -0.0000  -0.0000  -0.0000  -0.0000  -0.0000  -0.0000  -0.0000
    -0.0000  -0.0000  -0.0000  -0.0000  -0.0000  -0.0000  -0.0000  -0.0000
    -0.0000  -0.0000  -0.0000  -0.0000  -0.0000  -0.0000  -0.0000  -0.0000

          k = 0.0000-0.5774 0.0000 (  8560 PWs)   bands (ev):

   -78.5308 -78.2301 -78.1074 -73.5210 -73.4401 -73.3463 -44.5491 -44.4942
   -44.4942 -44.2220 -44.2219 -44.2117 -44.2087 -44.0473 -44.0473 -39.6714
   -39.6272 -39.6271 -39.5813 -39.5517 -39.5516 -39.5228 -39.4508 -39.4507
   -10.7124 -10.6929 -10.6806 -10.6756 -10.6700 -10.6635 -10.6467 -10.6314
   -10.6263 -10.6212 -10.6133 -10.6118 -10.6076 -10.6041 -10.5778 -10.5685
   -10.5629 -10.5583 -10.5514 -10.5504 -10.5478 -10.5403 -10.5359 -10.5242
   -10.5231 -10.5128 -10.5108 -10.5009 -10.4981 -10.4868  -6.6741  -6.6419
    -6.4787  -6.2753  -6.2282  -5.8865  -5.8022  -5.7427  -5.6256  -5.5581
    -5.4954  -5.4741  -5.3978  -5.3300  -5.2083  -5.1503  -5.0464  -4.9704
     1.5167   1.7711   1.8139   2.0680   2.1437   2.3165   5.5831   5.8625
     5.8844   6.0287   6.2097   6.2597   6.3356   6.3759   6.4001   6.5772
     6.6173   6.6812   6.8034   6.8499   7.0906   7.1184   7.1945   7.3101
     7.3552   7.4850   7.5712   7.6104   7.7507   7.8538   7.8747   7.9871
     8.0418   8.1883   8.2271   8.3451   8.3627   8.3813   8.5073   8.5718
     8.7289   8.8034   8.8911   9.0028   9.0444   9.1252   9.1592   9.2424
     9.2729   9.3728   9.4427   9.5361   9.6462   9.7456   9.8261   9.8509
     9.8746   9.9615   9.9925  10.1006  10.1730  10.2651  10.3049  10.5222
    10.7044  10.7824  10.9967  11.0780  11.1781  11.3596  11.5440  11.8441
    11.8747  11.9446  12.5670  12.9194  13.0459  13.1218  13.2010  13.2399
    13.3251  13.3671  13.5302  13.6461  14.2594  14.3007  14.5098  14.7886
    14.8378  15.2086  15.3987  15.6911  15.7596  15.8763  15.9578  16.0158
    16.1191  16.1648  16.2538  16.9840  17.1389  17.2635  17.3328  17.4041
    17.4836  17.5452  17.6287  17.7042  21.3539  21.5606  21.8540  22.2625
    22.4376  22.5387  22.9112  22.9739  23.0494  23.1981  23.3145  23.3462
    23.4264  23.4618  23.9387  23.9663  24.1536  24.1838  24.3218  24.4379

     occupation numbers 
     1.0000   1.0000   1.0000   1.0000   1.0000   1.0000   1.0000   1.0000
     1.0000   1.0000   1.0000   1.0000   1.0000   1.0000   1.0000   1.0000
     1.0000   1.0000   1.0000   1.0000   1.0000   1.0000   1.0000   1.0000
     1.0000   1.0000   1.0000   1.0000   1.0000   1.0000   1.0000   1.0000
     1.0000   1.0000   1.0000   1.0000   1.0000   1.0000   1.0000   1.0000
     1.0000   1.0000   1.0000   1.0000   1.0000   1.0000   1.0000   1.0000
     1.0000   1.0000   1.0000   1.0000   1.0000   1.0000   1.0000   1.0000
     1.0000   1.0000   1.0000   1.0000   1.0000   1.0000   1.0000   1.0000
     1.0000   1.0000   1.0000   1.0000   1.0000   1.0000   1.0000   1.0000
     1.0000   1.0000   1.0000   1.0000   1.0000   1.0000   1.0000   1.0000
     1.0000   1.0000   1.0000   1.0000   1.0000   1.0000   1.0000   1.0000
     1.0000   1.0000   1.0000   1.0000   1.0000   1.0000   1.0000   1.0000
     1.0000   1.0000   1.0000   1.0000   1.0000   1.0000   1.0000   1.0000
     1.0000   1.0000   1.0000   1.0000   1.0000   1.0000   1.0000   1.0000
     1.0000   1.0000   1.0000   1.0000   1.0000   1.0000   1.0000   1.0000
     1.0000   1.0000   1.0000   1.0000   1.0000   1.0000   1.0000   1.0000
     1.0000   1.0000   1.0000   1.0000   1.0000   1.0000   1.0000   1.0000
     1.0000   1.0000   1.0000   1.0000   1.0000   1.0000   1.0000   1.0000
     1.0000   1.0000   1.0170  -0.0026  -0.0151  -0.0023  -0.0001  -0.0000
    -0.0000  -0.0000  -0.0000  -0.0000  -0.0000  -0.0000  -0.0000  -0.0000
    -0.0000  -0.0000  -0.0000  -0.0000  -0.0000  -0.0000  -0.0000  -0.0000
    -0.0000  -0.0000  -0.0000  -0.0000  -0.0000  -0.0000  -0.0000  -0.0000
    -0.0000  -0.0000  -0.0000  -0.0000  -0.0000  -0.0000  -0.0000  -0.0000
    -0.0000  -0.0000  -0.0000  -0.0000  -0.0000  -0.0000  -0.0000  -0.0000
    -0.0000  -0.0000  -0.0000  -0.0000  -0.0000  -0.0000  -0.0000  -0.0000

 ------ SPIN DOWN ----------


          k = 0.0000 0.0000 0.0000 (  8497 PWs)   bands (ev):

   -78.5306 -78.2305 -78.1070 -73.5211 -73.4396 -73.3467 -44.5491 -44.4939
   -44.4939 -44.2223 -44.2223 -44.2113 -44.2092 -44.0468 -44.0467 -39.6715
   -39.6272 -39.6272 -39.5808 -39.5511 -39.5511 -39.5232 -39.4511 -39.4511
   -10.7157 -10.7157 -10.6926 -10.6926 -10.6774 -10.6655 -10.6485 -10.6485
   -10.6333 -10.6333 -10.6263 -10.6263 -10.6047 -10.6047 -10.5798 -10.5688
   -10.5582 -10.5582 -10.5490 -10.5490 -10.5326 -10.5326 -10.5272 -10.5197
   -10.5197 -10.5154 -10.4952 -10.4951 -10.4835 -10.4835  -7.3841  -6.9947
    -6.8602  -6.0442  -5.9638  -5.5927  -5.5925  -5.4942  -5.4941  -5.4277
    -5.4276  -5.4025  -5.3028  -5.3027  -5.1021  -5.1021  -4.9458  -4.9458
     1.5812   1.6971   1.7278   2.4181   2.5418   3.3196   5.4128   5.4128
     5.4795   5.9474   5.9475   6.0194   6.0729   6.0730   6.2416   6.3085
     6.3085   6.5185   6.5501   6.5524   6.5524   6.7041   6.7041   6.8694
     6.8695   6.9992   7.1290   7.2615   7.2615   7.6473   7.6473   7.6714
     7.8243   8.1830   8.1831   8.4096   8.5183   8.5184   8.6928   8.6928
     8.9160   9.1000   9.1001   9.1525   9.2610   9.2611   9.3301   9.4395
     9.4396   9.4470   9.5592   9.5593   9.7191   9.7192  10.0240  10.0241
    10.0696  10.0697  10.0908  10.1346  10.1347  10.4993  10.4993  10.6397
    10.8466  10.9838  11.0604  11.0604  11.1530  11.1799  11.2919  11.8938
    11.8938  12.6431  12.6431  12.9452  12.9452  13.1208  13.2012  13.2116
    13.2116  13.2407  13.3830  13.3830  14.2460  14.2460  14.9937  14.9937
    15.5119  15.6298  15.6298  15.7245  15.7854  15.9133  17.1352  17.1353
    17.1603  17.1604  17.2595  17.2595  17.5404  17.6053  17.6754  17.6754
    17.7327  17.7328  18.1478  18.1478  19.5719  20.5879  21.1232  21.2507
    21.5326  21.5326  22.0573  22.1954  22.5670  22.5670  22.6501  22.6501
    22.7700  22.7700  23.9875  23.9875  24.0551  24.0551  24.1590  24.3869

     occupation numbers 
     1.0000   1.0000   1.0000   1.0000   1.0000   1.0000   1.0000   1.0000
     1.0000   1.0000   1.0000   1.0000   1.0000   1.0000   1.0000   1.0000
     1.0000   1.0000   1.0000   1.0000   1.0000   1.0000   1.0000   1.0000
     1.0000   1.0000   1.0000   1.0000   1.0000   1.0000   1.0000   1.0000
     1.0000   1.0000   1.0000   1.0000   1.0000   1.0000   1.0000   1.0000
     1.0000   1.0000   1.0000   1.0000   1.0000   1.0000   1.0000   1.0000
     1.0000   1.0000   1.0000   1.0000   1.0000   1.0000   1.0000   1.0000
     1.0000   1.0000   1.0000   1.0000   1.0000   1.0000   1.0000   1.0000
     1.0000   1.0000   1.0000   1.0000   1.0000   1.0000   1.0000   1.0000
     1.0000   1.0000   1.0000   1.0000   1.0000   1.0000   1.0000   1.0000
     1.0000   1.0000   1.0000   1.0000   1.0000   1.0000   1.0000   1.0000
     1.0000   1.0000   1.0000   1.0000   1.0000   1.0000   1.0000   1.0000
     1.0000   1.0000   1.0000   1.0000   1.0000   1.0000   1.0000   1.0000
     1.0000   1.0000   1.0000   1.0000   1.0000   1.0000   1.0000   1.0000
     1.0000   1.0000   1.0000   1.0000   1.0000   1.0000   1.0000   1.0000
     1.0000   1.0000   1.0000   1.0000   1.0000   1.0000   1.0000   1.0000
     1.0000   1.0000   1.0000   1.0000   1.0000   1.0000   1.0000   1.0000
     1.0000   1.0000   1.0000   1.0000   1.0000   1.0000   1.0000   1.0000
     1.0000   1.0351   1.0351  -0.0291  -0.0291  -0.0023  -0.0001  -0.0001
    -0.0001  -0.0000  -0.0000  -0.0000  -0.0000  -0.0000  -0.0000  -0.0000
    -0.0000  -0.0000  -0.0000  -0.0000  -0.0000  -0.0000  -0.0000  -0.0000
    -0.0000  -0.0000  -0.0000  -0.0000  -0.0000  -0.0000  -0.0000  -0.0000
    -0.0000  -0.0000  -0.0000  -0.0000  -0.0000  -0.0000  -0.0000  -0.0000
    -0.0000  -0.0000  -0.0000  -0.0000  -0.0000  -0.0000  -0.0000  -0.0000
    -0.0000  -0.0000  -0.0000  -0.0000  -0.0000  -0.0000  -0.0000  -0.0000

          k = 0.0000-0.5774 0.0000 (  8560 PWs)   bands (ev):

   -78.5306 -78.2305 -78.1070 -73.5211 -73.4396 -73.3467 -44.5491 -44.4940
   -44.4940 -44.2224 -44.2223 -44.2112 -44.2091 -44.0469 -44.0468 -39.6714
   -39.6273 -39.6273 -39.5808 -39.5512 -39.5511 -39.5232 -39.4512 -39.4511
   -10.7122 -10.6931 -10.6801 -10.6752 -10.6705 -10.6640 -10.6467 -10.6311
   -10.6262 -10.6216 -10.6136 -10.6121 -10.6071 -10.6039 -10.5782 -10.5681
   -10.5631 -10.5583 -10.5515 -10.5502 -10.5481 -10.5401 -10.5360 -10.5242
   -10.5232 -10.5126 -10.5110 -10.5006 -10.4983 -10.4866  -6.6740  -6.6421
    -6.4788  -6.2753  -6.2281  -5.8864  -5.8022  -5.7427  -5.6258  -5.5580
    -5.4953  -5.4741  -5.3982  -5.3303  -5.2082  -5.1504  -5.0462  -4.9701
     1.5167   1.7710   1.8139   2.0681   2.1435   2.3166   5.5829   5.8621
     5.8845   6.0285   6.2095   6.2595   6.3358   6.3760   6.4002   6.5772
     6.6171   6.6814   6.8035   6.8495   7.0907   7.1185   7.1944   7.3100
     7.3554   7.4849   7.5712   7.6105   7.7506   7.8540   7.8749   7.9871
     8.0417   8.1883   8.2272   8.3450   8.3625   8.3814   8.5075   8.5721
     8.7289   8.8035   8.8909   9.0027   9.0446   9.1252   9.1592   9.2425
     9.2729   9.3729   9.4426   9.5361   9.6460   9.7455   9.8261   9.8509
     9.8747   9.9616   9.9925  10.1010  10.1731  10.2656  10.3051  10.5222
    10.7047  10.7827  10.9967  11.0781  11.1782  11.3599  11.5441  11.8445
    11.8749  11.9450  12.5672  12.9194  13.0457  13.1216  13.2011  13.2400
    13.3249  13.3670  13.5300  13.6457  14.2592  14.3005  14.5095  14.7884
    14.8376  15.2085  15.3986  15.6912  15.7599  15.8760  15.9576  16.0156
    16.1193  16.1645  16.2537  16.9840  17.1389  17.2636  17.3328  17.4042
    17.4837  17.5449  17.6285  17.7044  21.3549  21.5614  21.8545  22.2622
    22.4372  22.5381  22.9110  22.9740  23.0494  23.1986  23.3147  23.3460
    23.4262  23.4616  23.9389  23.9666  24.1539  24.1836  24.3219  24.4378

     occupation numbers 
     1.0000   1.0000   1.0000   1.0000   1.0000   1.0000   1.0000   1.0000
     1.0000   1.0000   1.0000   1.0000   1.0000   1.0000   1.0000   1.0000
     1.0000   1.0000   1.0000   1.0000   1.0000   1.0000   1.0000   1.0000
     1.0000   1.0000   1.0000   1.0000   1.0000   1.0000   1.0000   1.0000
     1.0000   1.0000   1.0000   1.0000   1.0000   1.0000   1.0000   1.0000
     1.0000   1.0000   1.0000   1.0000   1.0000   1.0000   1.0000   1.0000
     1.0000   1.0000   1.0000   1.0000   1.0000   1.0000   1.0000   1.0000
     1.0000   1.0000   1.0000   1.0000   1.0000   1.0000   1.0000   1.0000
     1.0000   1.0000   1.0000   1.0000   1.0000   1.0000   1.0000   1.0000
     1.0000   1.0000   1.0000   1.0000   1.0000   1.0000   1.0000   1.0000
     1.0000   1.0000   1.0000   1.0000   1.0000   1.0000   1.0000   1.0000
     1.0000   1.0000   1.0000   1.0000   1.0000   1.0000   1.0000   1.0000
     1.0000   1.0000   1.0000   1.0000   1.0000   1.0000   1.0000   1.0000
     1.0000   1.0000   1.0000   1.0000   1.0000   1.0000   1.0000   1.0000
     1.0000   1.0000   1.0000   1.0000   1.0000   1.0000   1.0000   1.0000
     1.0000   1.0000   1.0000   1.0000   1.0000   1.0000   1.0000   1.0000
     1.0000   1.0000   1.0000   1.0000   1.0000   1.0000   1.0000   1.0000
     1.0000   1.0000   1.0000   1.0000   1.0000   1.0000   1.0000   1.0000
     1.0000   1.0000   1.0171  -0.0025  -0.0151  -0.0023  -0.0001  -0.0000
    -0.0000  -0.0000  -0.0000  -0.0000  -0.0000  -0.0000  -0.0000  -0.0000
    -0.0000  -0.0000  -0.0000  -0.0000  -0.0000  -0.0000  -0.0000  -0.0000
    -0.0000  -0.0000  -0.0000  -0.0000  -0.0000  -0.0000  -0.0000  -0.0000
    -0.0000  -0.0000  -0.0000  -0.0000  -0.0000  -0.0000  -0.0000  -0.0000
    -0.0000  -0.0000  -0.0000  -0.0000  -0.0000  -0.0000  -0.0000  -0.0000
    -0.0000  -0.0000  -0.0000  -0.0000  -0.0000  -0.0000  -0.0000  -0.0000

     the Fermi energy is    12.8032 ev

!    total energy              =   -3194.90205543 Ry
     estimated scf accuracy    <       0.00000001 Ry
     smearing contrib. (-TS)   =       0.00277826 Ry
     internal energy E=F+TS    =   -3194.90483369 Ry

     The total energy is F=E-TS. E is the sum of the following terms:
     one-electron contribution =   -1267.07724545 Ry
     hartree contribution      =     826.16756338 Ry
     xc contribution           =    -695.64937407 Ry
     ewald contribution        =   -2058.48132819 Ry
     Hubbard energy            =       0.13555064 Ry

     total magnetization       =    -0.00 Bohr mag/cell
     absolute magnetization    =    27.36 Bohr mag/cell

     convergence has been achieved in  13 iterations

     Writing output data file /home/aldair1809/Documentos/QE/4BFO/hubbard_pbe_mp/lr_0.05/bifeo3-Uhubbard.save/

     init_run     :     14.25s CPU     15.70s WALL (       1 calls)
     electrons    :   2289.79s CPU   2327.01s WALL (       1 calls)

     Called by init_run:
     wfcinit      :     11.52s CPU     12.50s WALL (       1 calls)
     potinit      :      0.15s CPU      0.29s WALL (       1 calls)
     hinit0       :      1.26s CPU      1.31s WALL (       1 calls)

     Called by electrons:
     c_bands      :   2162.75s CPU   2192.04s WALL (      13 calls)
     sum_band     :    113.30s CPU    118.01s WALL (      13 calls)
     v_of_rho     :      2.07s CPU      2.17s WALL (      14 calls)
     v_h          :      0.06s CPU      0.07s WALL (      14 calls)
     v_xc         :      2.00s CPU      2.10s WALL (      14 calls)
     newd         :     12.21s CPU     15.49s WALL (      14 calls)
     mix_rho      :      0.43s CPU      0.44s WALL (      13 calls)

     Called by c_bands:
     init_us_2    :      1.54s CPU      1.57s WALL (     108 calls)
     ccgdiagg     :   1809.19s CPU   1834.33s WALL (      56 calls)
     wfcrot       :    352.18s CPU    356.30s WALL (      52 calls)

     Called by sum_band:
     sum_band:wei :      0.04s CPU      0.04s WALL (      13 calls)
     sum_band:loo :     89.30s CPU     90.90s WALL (      13 calls)
     sum_band:buf :      0.25s CPU      0.26s WALL (      52 calls)
     sum_band:ini :      0.74s CPU      0.74s WALL (      52 calls)
     sum_band:cal :     67.77s CPU     67.98s WALL (      52 calls)
     sum_band:bec :      0.35s CPU      0.35s WALL (      52 calls)
     addusdens    :     18.19s CPU     21.23s WALL (      13 calls)
     addusd:skk   :      0.07s CPU      0.08s WALL (      52 calls)
     addusd:dgemm :      9.34s CPU     11.85s WALL (     104 calls)
     addusd:qvan2 :      8.57s CPU      8.60s WALL (     104 calls)

     Called by *cgdiagg:
     h_psi        :    965.13s CPU    984.40s WALL (   36983 calls)
     s_psi        :    597.37s CPU    601.32s WALL (   73918 calls)

     Called by h_psi:
     h_psi:calbec :    393.94s CPU    399.38s WALL (   36983 calls)
     vloc_psi     :    182.08s CPU    192.88s WALL (   36983 calls)
     add_vuspsi   :    331.79s CPU    333.71s WALL (   36983 calls)
     vhpsi        :     55.59s CPU     56.83s WALL (   36983 calls)
     hs_1psi      :   1034.11s CPU   1051.94s WALL (   36931 calls)
     s_1psi       :    589.15s CPU    594.29s WALL (   36931 calls)

     General routines
     calbec       :    833.33s CPU    843.39s WALL (  111005 calls)
     fft          :      0.94s CPU      1.03s WALL (     292 calls)
     ffts         :      0.09s CPU      0.10s WALL (      26 calls)
     fftw         :    171.38s CPU    182.56s WALL (  105062 calls)
     davcio       :      0.00s CPU      0.06s WALL (       4 calls)

     Parallel routines
     fft_scatt_xy :     27.68s CPU     29.93s WALL (  105380 calls)
     fft_scatt_yz :     31.75s CPU     35.80s WALL (  105380 calls)

     Hubbard U routines
     new_ns       :      4.75s CPU      4.77s WALL (      13 calls)
     new_ns       :      4.75s CPU      4.77s WALL (      13 calls)
     vhpsi        :     55.59s CPU     56.83s WALL (   36983 calls)

     PWSCF        :  38m25.06s CPU  39m 4.20s WALL


   This run was terminated on:  23:29:48  26Oct2024            

=------------------------------------------------------------------------------=
   JOB DONE.
=------------------------------------------------------------------------------=
