
     Program PWSCF v.6.7MaX starts on 15Dec2024 at 10:14: 0 

     This program is part of the open-source Quantum ESPRESSO suite
     for quantum simulation of materials; please cite
         "P. Giannozzi et al., J. Phys.:Condens. Matter 21 395502 (2009);
         "P. Giannozzi et al., J. Phys.:Condens. Matter 29 465901 (2017);
          URL http://www.quantum-espresso.org", 
     in publications or presentations arising from this work. More details at
     http://www.quantum-espresso.org/quote

     Parallel version (MPI), running on     6 processors

     MPI processes distributed on     1 nodes
     R & G space division:  proc/nbgrp/npool/nimage =       6
     Waiting for input...
     Reading input from standard input

     Current dimensions of program PWSCF are:
     Max number of different atomic species (ntypx) = 10
     Max number of k-points (npk) =  40000
     Max angular momentum in pseudopotentials (lmaxx) =  3
     Message from routine iosys:
     wrong startingpot: use default (2)

     Atomic positions and unit cell read from directory:
     /home/aldair1809/Documentos/QE/4BFO/temp_tipoA/bands/bifeo3.save/
     Atomic positions from file used, from input discarded


     Subspace diagonalization in iterative solution of the eigenvalue problem:
     one sub-group per band group will be used
     scalapack distributed-memory algorithm (size of sub-group:  2*  2 procs)


     Parallelization info
     --------------------
     sticks:   dense  smooth     PW     G-vecs:    dense   smooth      PW
     Min         400     198     57                39001    13755    2071
     Max         402     202     59                39005    13763    2075
     Sum        2407    1201    349               234021    82543   12439



     bravais-lattice index     =            4
     lattice parameter (alat)  =      10.4357  a.u.
     unit-cell volume          =    2419.7788 (a.u.)^3
     number of atoms/cell      =           30
     number of atomic types    =            4
     number of electrons       =       294.00
     number of Kohn-Sham states=          176
     kinetic-energy cutoff     =      40.0000  Ry
     charge density cutoff     =     320.0000  Ry
     Exchange-correlation=  SLA  PW   PBX  PBC
                           (   1   4   3   4   0   0   0)

     celldm(1)=  10.435734  celldm(2)=   0.000000  celldm(3)=   2.458533
     celldm(4)=   0.000000  celldm(5)=   0.000000  celldm(6)=   0.000000

     crystal axes: (cart. coord. in units of alat)
               a(1) = (   1.000000   0.000000   0.000000 )  
               a(2) = (  -0.500000   0.866025   0.000000 )  
               a(3) = (   0.000000   0.000000   2.458533 )  

     reciprocal axes: (cart. coord. in units 2 pi/alat)
               b(1) = (  1.000000  0.577350 -0.000000 )  
               b(2) = (  0.000000  1.154701  0.000000 )  
               b(3) = (  0.000000 -0.000000  0.406747 )  


     PseudoPot. # 1 for O  read from file:
     /home/aldair1809/Programas/QE/q-e-qe-7.3/pseudo/o_pbe_v1.2.uspp.F.UPF
     MD5 check sum: 734c27235a0248c51dbae37a1fbe46ec
     Pseudo is Ultrasoft + core correction, Zval =  6.0
     Generated by new atomic code, or converted to UPF format
     Using radial grid of  737 points,  5 beta functions with: 
                l(1) =   0
                l(2) =   0
                l(3) =   1
                l(4) =   1
                l(5) =   2
     Q(r) pseudized with  8 coefficients,  rinner =    0.900   0.900   0.900
                                                       0.900   0.900

     PseudoPot. # 2 for Bi read from file:
     /home/aldair1809/Programas/QE/q-e-qe-7.3/pseudo/bi_pbe_v1.uspp.F.UPF
     MD5 check sum: cceb9f28ec65b6d7ff33140f5b0b1758
     Pseudo is Ultrasoft + core correction, Zval = 15.0
     Generated by new atomic code, or converted to UPF format
     Using radial grid of  899 points,  6 beta functions with: 
                l(1) =   0
                l(2) =   0
                l(3) =   1
                l(4) =   1
                l(5) =   2
                l(6) =   2
     Q(r) pseudized with  6 coefficients,  rinner =    1.000   1.000   1.000
                                                       1.000   1.000

     PseudoPot. # 3 for Fe read from file:
     /home/aldair1809/Programas/QE/q-e-qe-7.3/pseudo/fe_pbe_v1.5.uspp.F.UPF
     MD5 check sum: a130daea23fe5165f5d574ae7f82ed95
     Pseudo is Ultrasoft + core correction, Zval = 16.0
     Generated by new atomic code, or converted to UPF format
     Using radial grid of  861 points,  6 beta functions with: 
                l(1) =   0
                l(2) =   0
                l(3) =   1
                l(4) =   1
                l(5) =   2
                l(6) =   2
     Q(r) pseudized with  8 coefficients,  rinner =    1.000   1.000   1.000
                                                       1.000   1.000

     PseudoPot. # 4 for Fe read from file:
     /home/aldair1809/Programas/QE/q-e-qe-7.3/pseudo/fe_pbe_v1.5.uspp.F.UPF
     MD5 check sum: a130daea23fe5165f5d574ae7f82ed95
     Pseudo is Ultrasoft + core correction, Zval = 16.0
     Generated by new atomic code, or converted to UPF format
     Using radial grid of  861 points,  6 beta functions with: 
                l(1) =   0
                l(2) =   0
                l(3) =   1
                l(4) =   1
                l(5) =   2
                l(6) =   2
     Q(r) pseudized with  8 coefficients,  rinner =    1.000   1.000   1.000
                                                       1.000   1.000

     atomic species   valence    mass     pseudopotential
        O              6.00    15.99940     O ( 1.00)
        Bi            15.00   208.98040     Bi( 1.00)
        Fe1           16.00    55.84500     Fe( 1.00)
        Fe2           16.00    55.84500     Fe( 1.00)

     Starting magnetic structure 
     atomic species   magnetization
        O            0.000
        Bi           0.000
        Fe1         -0.800
        Fe2          0.800


     Simplified LDA+U calculation (l_max = 2) with parameters (eV):
     atomic species    L          U    alpha       J0     beta
        Fe1            2     4.1000   0.0000   0.0000   0.0000
        Fe2            2     4.1000   0.0000   0.0000   0.0000



     No symmetry found


                                    s                        frac. trans.

      isym =  1     identity                                     

 cryst.   s( 1) = (     1          0          0      )
                  (     0          1          0      )
                  (     0          0          1      )

 cart.    s( 1) = (  1.0000000  0.0000000  0.0000000 )
                  (  0.0000000  1.0000000  0.0000000 )
                  (  0.0000000  0.0000000  1.0000000 )


     point group C_1 (1)    
     there are  1 classes
     the character table:

       E    
A      1.00

     the symmetry operations in each class and the name of the first element:

     E        1
          identity                                               

   Cartesian axes

     site n.     atom                  positions (alat units)
         1           Fe2 tau(   1) = (   0.0000000   0.0000000   1.9108937  )
         2           Fe1 tau(   2) = (  -0.0000005   0.5773506   2.3205983  )
         3           Fe1 tau(   3) = (   0.5000005   0.2886748   1.5012165  )
         4           Fe2 tau(   4) = (   0.5000005   0.2886748   0.2719883  )
         5           Fe1 tau(   5) = (   0.0000000   0.0000000   0.6816731  )
         6           Fe2 tau(   6) = (  -0.0000005   0.5773506   1.0913263  )
         7           Bi  tau(   7) = (   0.5000005   0.2886748   2.0662347  )
         8           Bi  tau(   8) = (  -0.0000005   0.5773506   1.6560675  )
         9           Bi  tau(   9) = (  -0.0000005   0.5773506   0.4267941  )
        10           Bi  tau(  10) = (   0.0000000   0.0000000   0.0172186  )
        11           Bi  tau(  11) = (   0.0000000   0.0000000   1.2465036  )
        12           Bi  tau(  12) = (   0.5000005   0.2886748   0.8369763  )
        13           O   tau(  13) = (  -0.3005870   0.6647756   2.1624421  )
        14           O   tau(  14) = (   0.0745814   0.2733208   2.1624421  )
        15           O   tau(  15) = (   0.2260070   0.7939536   2.1624421  )
        16           O   tau(  16) = (   0.4254330   0.5619882   1.7527437  )
        17           O   tau(  17) = (   0.3005869   0.0874426   1.7527437  )
        18           O   tau(  18) = (   0.7739786   0.2165955   1.7527437  )
        19           O   tau(  19) = (   0.6994059   0.0874362   0.5234995  )
        20           O   tau(  20) = (   0.5745746   0.5619860   0.5234995  )
        21           O   tau(  21) = (   0.2260180   0.2166040   0.5234995  )
        22           O   tau(  22) = (  -0.0745661   0.8507653   0.1135732  )
        23           O   tau(  23) = (  -0.1995013   0.3760667   0.1135732  )
        24           O   tau(  24) = (   0.2740674   0.5052189   0.1135732  )
        25           O   tau(  25) = (   0.1994921   0.3760730   1.3428354  )
        26           O   tau(  26) = (   0.0745652   0.8507542   1.3428354  )
        27           O   tau(  27) = (  -0.2740573   0.5052237   1.3428354  )
        28           O   tau(  28) = (  -0.0745884   0.2733113   0.9331975  )
        29           O   tau(  29) = (   0.3006002   0.6647734   0.9331975  )
        30           O   tau(  30) = (  -0.2260103   0.7939652   0.9331975  )

   Crystallographic axes

     site n.     atom                  positions (cryst. coord.)
         1           Fe2 tau(   1) = (  0.0000000  0.0000000  0.7772496  )
         2           Fe1 tau(   2) = (  0.3333330  0.6666670  0.9438955  )
         3           Fe1 tau(   3) = (  0.6666670  0.3333330  0.6106148  )
         4           Fe2 tau(   4) = (  0.6666670  0.3333330  0.1106303  )
         5           Fe1 tau(   5) = (  0.0000000  0.0000000  0.2772683  )
         6           Fe2 tau(   6) = (  0.3333330  0.6666670  0.4438933  )
         7           Bi  tau(   7) = (  0.6666670  0.3333330  0.8404340  )
         8           Bi  tau(   8) = (  0.3333330  0.6666670  0.6735999  )
         9           Bi  tau(   9) = (  0.3333330  0.6666670  0.1735971  )
        10           Bi  tau(  10) = (  0.0000000  0.0000000  0.0070036  )
        11           Bi  tau(  11) = (  0.0000000  0.0000000  0.5070111  )
        12           Bi  tau(  12) = (  0.6666670  0.3333330  0.3404373  )
        13           O   tau(  13) = (  0.0832214  0.7676167  0.8795660  )
        14           O   tau(  14) = (  0.2323833  0.3156037  0.8795660  )
        15           O   tau(  15) = (  0.6843963  0.9167786  0.8795660  )
        16           O   tau(  16) = (  0.7498970  0.6489281  0.7129226  )
        17           O   tau(  17) = (  0.3510719  0.1009700  0.7129226  )
        18           O   tau(  18) = (  0.8990300  0.2501030  0.7129226  )
        19           O   tau(  19) = (  0.7498872  0.1009626  0.2129316  )
        20           O   tau(  20) = (  0.8990374  0.6489256  0.2129316  )
        21           O   tau(  21) = (  0.3510744  0.2501128  0.2129316  )
        22           O   tau(  22) = (  0.4166235  0.9823791  0.0461955  )
        23           O   tau(  23) = (  0.0176209  0.4342444  0.0461955  )
        24           O   tau(  24) = (  0.5657556  0.5833765  0.0461955  )
        25           O   tau(  25) = (  0.4166179  0.4342517  0.5461938  )
        26           O   tau(  26) = (  0.5657483  0.9823663  0.5461938  )
        27           O   tau(  27) = (  0.0176337  0.5833821  0.5461938  )
        28           O   tau(  28) = (  0.0832080  0.3155927  0.3795749  )
        29           O   tau(  29) = (  0.6844073  0.7676142  0.3795749  )
        30           O   tau(  30) = (  0.2323858  0.9167920  0.3795749  )

     number of k points=    31  Methfessel-Paxton smearing, width (Ry)=  0.0100
                       cart. coord. in units 2pi/alat
        k(    1) = (   0.0000000   0.0000000   0.0000000), wk =   0.0322581
        k(    2) = (   0.0500000   0.0288675   0.0000000), wk =   0.0322581
        k(    3) = (   0.1000000   0.0577350   0.0000000), wk =   0.0322581
        k(    4) = (   0.1500000   0.0866025   0.0000000), wk =   0.0322581
        k(    5) = (   0.2000000   0.1154701   0.0000000), wk =   0.0322581
        k(    6) = (   0.2500000   0.1443376   0.0000000), wk =   0.0322581
        k(    7) = (   0.3000000   0.1732051   0.0000000), wk =   0.0322581
        k(    8) = (   0.3500000   0.2020726   0.0000000), wk =   0.0322581
        k(    9) = (   0.4000000   0.2309401   0.0000000), wk =   0.0322581
        k(   10) = (   0.4500000   0.2598076   0.0000000), wk =   0.0322581
        k(   11) = (   0.5000000   0.2886751   0.0000000), wk =   0.0322581
        k(   12) = (   0.5166667   0.2598076   0.0000000), wk =   0.0322581
        k(   13) = (   0.5333333   0.2309401   0.0000000), wk =   0.0322581
        k(   14) = (   0.5500000   0.2020726   0.0000000), wk =   0.0322581
        k(   15) = (   0.5666667   0.1732051   0.0000000), wk =   0.0322581
        k(   16) = (   0.5833333   0.1443376   0.0000000), wk =   0.0322581
        k(   17) = (   0.6000000   0.1154701   0.0000000), wk =   0.0322581
        k(   18) = (   0.6166667   0.0866025   0.0000000), wk =   0.0322581
        k(   19) = (   0.6333333   0.0577350   0.0000000), wk =   0.0322581
        k(   20) = (   0.6500000   0.0288675   0.0000000), wk =   0.0322581
        k(   21) = (   0.6666667   0.0000000   0.0000000), wk =   0.0322581
        k(   22) = (   0.6000000   0.0000000   0.0000000), wk =   0.0322581
        k(   23) = (   0.5333333   0.0000000   0.0000000), wk =   0.0322581
        k(   24) = (   0.4666667   0.0000000   0.0000000), wk =   0.0322581
        k(   25) = (   0.4000000   0.0000000   0.0000000), wk =   0.0322581
        k(   26) = (   0.3333333   0.0000000   0.0000000), wk =   0.0322581
        k(   27) = (   0.2666667   0.0000000   0.0000000), wk =   0.0322581
        k(   28) = (   0.2000000   0.0000000   0.0000000), wk =   0.0322581
        k(   29) = (   0.1333333   0.0000000   0.0000000), wk =   0.0322581
        k(   30) = (   0.0666667   0.0000000   0.0000000), wk =   0.0322581
        k(   31) = (   0.0000000   0.0000000   0.0000000), wk =   0.0322581

                       cryst. coord.
        k(    1) = (   0.0000000   0.0000000   0.0000000), wk =   0.0322581
        k(    2) = (   0.0500000   0.0000000   0.0000000), wk =   0.0322581
        k(    3) = (   0.1000000   0.0000000   0.0000000), wk =   0.0322581
        k(    4) = (   0.1500000   0.0000000   0.0000000), wk =   0.0322581
        k(    5) = (   0.2000000   0.0000000   0.0000000), wk =   0.0322581
        k(    6) = (   0.2500000   0.0000000   0.0000000), wk =   0.0322581
        k(    7) = (   0.3000000   0.0000000   0.0000000), wk =   0.0322581
        k(    8) = (   0.3500000   0.0000000   0.0000000), wk =   0.0322581
        k(    9) = (   0.4000000   0.0000000   0.0000000), wk =   0.0322581
        k(   10) = (   0.4500000   0.0000000   0.0000000), wk =   0.0322581
        k(   11) = (   0.5000000   0.0000000   0.0000000), wk =   0.0322581
        k(   12) = (   0.5166667  -0.0333333   0.0000000), wk =   0.0322581
        k(   13) = (   0.5333333  -0.0666667   0.0000000), wk =   0.0322581
        k(   14) = (   0.5500000  -0.1000000   0.0000000), wk =   0.0322581
        k(   15) = (   0.5666667  -0.1333333   0.0000000), wk =   0.0322581
        k(   16) = (   0.5833333  -0.1666667   0.0000000), wk =   0.0322581
        k(   17) = (   0.6000000  -0.2000000   0.0000000), wk =   0.0322581
        k(   18) = (   0.6166667  -0.2333333   0.0000000), wk =   0.0322581
        k(   19) = (   0.6333333  -0.2666667   0.0000000), wk =   0.0322581
        k(   20) = (   0.6500000  -0.3000000   0.0000000), wk =   0.0322581
        k(   21) = (   0.6666667  -0.3333333   0.0000000), wk =   0.0322581
        k(   22) = (   0.6000000  -0.3000000   0.0000000), wk =   0.0322581
        k(   23) = (   0.5333333  -0.2666667   0.0000000), wk =   0.0322581
        k(   24) = (   0.4666667  -0.2333333   0.0000000), wk =   0.0322581
        k(   25) = (   0.4000000  -0.2000000   0.0000000), wk =   0.0322581
        k(   26) = (   0.3333333  -0.1666667   0.0000000), wk =   0.0322581
        k(   27) = (   0.2666667  -0.1333333   0.0000000), wk =   0.0322581
        k(   28) = (   0.2000000  -0.1000000   0.0000000), wk =   0.0322581
        k(   29) = (   0.1333333  -0.0666667   0.0000000), wk =   0.0322581
        k(   30) = (   0.0666667  -0.0333333   0.0000000), wk =   0.0322581
        k(   31) = (   0.0000000   0.0000000   0.0000000), wk =   0.0322581

     Dense  grid:   234021 G-vectors     FFT dimensions: (  60,  60, 150)

     Smooth grid:    82543 G-vectors     FFT dimensions: (  45,  45, 108)

     Dynamical RAM for                 wfc:       4.62 MB

     Dynamical RAM for     wfc (w. buffer):       4.62 MB

     Dynamical RAM for             U proj.:       0.79 MB

     Dynamical RAM for  U proj. (w. buff.):       0.79 MB

     Dynamical RAM for           str. fact:       2.38 MB

     Dynamical RAM for           local pot:       0.00 MB

     Dynamical RAM for          nlocal pot:      11.82 MB

     Dynamical RAM for                qrad:       5.74 MB

     Dynamical RAM for          rho,v,vnew:       7.69 MB

     Dynamical RAM for           G-vectors:       2.34 MB

     Dynamical RAM for          h,s,v(r/c):       0.35 MB

     Dynamical RAM for          <psi|beta>:       1.21 MB

     Dynamical RAM for      wfcinit/wfcrot:      11.67 MB

     Dynamical RAM for           addusdens:     122.01 MB

     Estimated static dynamical RAM per process >      42.48 MB

     Estimated max dynamical RAM per process >     164.49 MB

     Estimated total dynamical RAM >     986.96 MB

     Check: negative core charge=   -0.000014
     Generating pointlists ...
     new r_m :   0.1447 (alat units)  1.5098 (a.u.) for type    1
     new r_m :   0.1742 (alat units)  1.8183 (a.u.) for type    2
     new r_m :   0.1447 (alat units)  1.5098 (a.u.) for type    3
     new r_m :   0.1447 (alat units)  1.5098 (a.u.) for type    4

     The potential is recalculated from file :
     /home/aldair1809/Documentos/QE/4BFO/temp_tipoA/bands/bifeo3.save/charge-density


     negative rho (up, down):  1.205E-01 1.205E-01
 --- in v_hubbard ---
Hubbard energy    0.7199
 -------
     Number of +U iterations with fixed ns =  0
     Starting occupations:
 --- enter write_ns ---
 LDA+U parameters:
U( 3)     =  4.10000000
U( 4)     =  4.10000000
atom    1   Tr[ns(na)] (up, down, total) =   4.97542  1.04904  6.02446
   spin  1
    eigenvalues: 
  0.992  0.992  0.997  0.997  0.997
    eigenvectors:
  0.000  0.000  1.000  0.000  0.000
  0.000  0.541  0.000  0.014  0.444
  0.541  0.000  0.000  0.444  0.014
  0.166  0.293  0.000  0.124  0.418
  0.293  0.166  0.000  0.418  0.124
    occupations:
  0.997 -0.000 -0.000 -0.000 -0.000
 -0.000  0.995 -0.000 -0.002 -0.002
 -0.000 -0.000  0.995 -0.002  0.002
 -0.000 -0.002 -0.002  0.995  0.000
 -0.000 -0.002  0.002  0.000  0.995
   spin  2
    eigenvalues: 
  0.122  0.122  0.125  0.341  0.341
    eigenvectors:
  0.000  0.000  1.000  0.000  0.000
  0.030  0.365  0.000  0.005  0.600
  0.365  0.030  0.000  0.600  0.005
  0.157  0.448  0.000  0.174  0.221
  0.448  0.157  0.000  0.221  0.174
    occupations:
  0.125 -0.000 -0.000 -0.000 -0.000
 -0.000  0.254 -0.000  0.073  0.078
 -0.000 -0.000  0.254  0.078 -0.073
 -0.000  0.073  0.078  0.208  0.000
 -0.000  0.078 -0.073  0.000  0.208
atomic mag. moment =   3.92637
atom    2   Tr[ns(na)] (up, down, total) =   1.04911  4.97544  6.02454
   spin  1
    eigenvalues: 
  0.122  0.122  0.125  0.341  0.341
    eigenvectors:
  0.000  0.000  1.000  0.000  0.000
  0.317  0.078  0.000  0.441  0.164
  0.078  0.317  0.000  0.164  0.441
  0.051  0.553  0.000  0.017  0.378
  0.553  0.051  0.000  0.378  0.017
    occupations:
  0.125 -0.000 -0.000 -0.000 -0.000
 -0.000  0.254 -0.000 -0.073  0.078
 -0.000 -0.000  0.254  0.078  0.073
 -0.000 -0.073  0.078  0.208  0.000
 -0.000  0.078  0.073  0.000  0.208
   spin  2
    eigenvalues: 
  0.992  0.992  0.997  0.997  0.997
    eigenvectors:
  0.000  0.000  1.000  0.000  0.000
  0.360  0.182  0.000  0.284  0.175
  0.182  0.360  0.000  0.175  0.284
  0.035  0.424  0.000  0.029  0.512
  0.424  0.035  0.000  0.512  0.029
    occupations:
  0.997 -0.000 -0.000 -0.000 -0.000
 -0.000  0.995 -0.000  0.002 -0.002
 -0.000 -0.000  0.995 -0.002 -0.002
 -0.000  0.002 -0.002  0.995  0.000
 -0.000 -0.002 -0.002  0.000  0.995
atomic mag. moment =  -3.92633
atom    3   Tr[ns(na)] (up, down, total) =   1.04893  4.97543  6.02436
   spin  1
    eigenvalues: 
  0.122  0.122  0.124  0.341  0.341
    eigenvectors:
  0.000  0.000  1.000  0.000  0.000
  0.316  0.078  0.000  0.441  0.165
  0.078  0.316  0.000  0.165  0.441
  0.051  0.554  0.000  0.017  0.378
  0.554  0.051  0.000  0.378  0.017
    occupations:
  0.124 -0.000 -0.000 -0.000 -0.000
 -0.000  0.254 -0.000 -0.074  0.078
 -0.000 -0.000  0.254  0.078  0.074
 -0.000 -0.074  0.078  0.208  0.000
 -0.000  0.078  0.074  0.000  0.208
   spin  2
    eigenvalues: 
  0.992  0.992  0.997  0.997  0.997
    eigenvectors:
  0.000  0.000  1.000  0.000  0.000
  0.361  0.182  0.000  0.283  0.174
  0.182  0.361  0.000  0.174  0.283
  0.035  0.422  0.000  0.029  0.514
  0.422  0.035  0.000  0.514  0.029
    occupations:
  0.997 -0.000 -0.000 -0.000 -0.000
 -0.000  0.994 -0.000  0.002 -0.002
 -0.000 -0.000  0.994 -0.002 -0.002
 -0.000  0.002 -0.002  0.995  0.000
 -0.000 -0.002 -0.002  0.000  0.995
atomic mag. moment =  -3.92650
atom    4   Tr[ns(na)] (up, down, total) =   4.97544  1.04900  6.02444
   spin  1
    eigenvalues: 
  0.992  0.992  0.997  0.997  0.997
    eigenvectors:
  0.000  0.000  1.000  0.000  0.000
  0.000  0.542  0.000  0.014  0.444
  0.542  0.000  0.000  0.444  0.014
  0.165  0.292  0.000  0.124  0.419
  0.292  0.165  0.000  0.419  0.124
    occupations:
  0.997 -0.000 -0.000 -0.000 -0.000
 -0.000  0.994 -0.000 -0.002 -0.002
 -0.000 -0.000  0.994 -0.002  0.002
 -0.000 -0.002 -0.002  0.995  0.000
 -0.000 -0.002  0.002  0.000  0.995
   spin  2
    eigenvalues: 
  0.122  0.122  0.124  0.341  0.341
    eigenvectors:
  0.000  0.000  1.000  0.000  0.000
  0.030  0.364  0.000  0.005  0.601
  0.364  0.030  0.000  0.601  0.005
  0.157  0.449  0.000  0.174  0.220
  0.449  0.157  0.000  0.220  0.174
    occupations:
  0.124 -0.000 -0.000 -0.000 -0.000
 -0.000  0.254 -0.000  0.074  0.078
 -0.000 -0.000  0.254  0.078 -0.074
 -0.000  0.074  0.078  0.208  0.000
 -0.000  0.078 -0.074  0.000  0.208
atomic mag. moment =   3.92644
atom    5   Tr[ns(na)] (up, down, total) =   1.04906  4.97541  6.02447
   spin  1
    eigenvalues: 
  0.122  0.122  0.125  0.341  0.341
    eigenvectors:
  0.000  0.000  1.000  0.000  0.000
  0.317  0.079  0.000  0.440  0.165
  0.079  0.317  0.000  0.165  0.440
  0.051  0.554  0.000  0.017  0.378
  0.554  0.051  0.000  0.378  0.017
    occupations:
  0.125 -0.000 -0.000 -0.000 -0.000
 -0.000  0.254 -0.000 -0.073  0.078
 -0.000 -0.000  0.254  0.078  0.073
 -0.000 -0.073  0.078  0.208  0.000
 -0.000  0.078  0.073  0.000  0.208
   spin  2
    eigenvalues: 
  0.992  0.992  0.997  0.997  0.997
    eigenvectors:
  0.000  0.000  1.000  0.000  0.000
  0.360  0.182  0.000  0.284  0.174
  0.182  0.360  0.000  0.174  0.284
  0.035  0.423  0.000  0.029  0.513
  0.423  0.035  0.000  0.513  0.029
    occupations:
  0.997 -0.000 -0.000 -0.000 -0.000
 -0.000  0.994 -0.000  0.002 -0.002
 -0.000 -0.000  0.994 -0.002 -0.002
 -0.000  0.002 -0.002  0.995  0.000
 -0.000 -0.002 -0.002  0.000  0.995
atomic mag. moment =  -3.92636
atom    6   Tr[ns(na)] (up, down, total) =   4.97544  1.04916  6.02460
   spin  1
    eigenvalues: 
  0.992  0.992  0.997  0.997  0.997
    eigenvectors:
  0.000  0.000  1.000  0.000  0.000
  0.000  0.541  0.000  0.014  0.445
  0.541  0.000  0.000  0.445  0.014
  0.166  0.293  0.000  0.124  0.417
  0.293  0.166  0.000  0.417  0.124
    occupations:
  0.997 -0.000 -0.000 -0.000 -0.000
 -0.000  0.995 -0.000 -0.002 -0.002
 -0.000 -0.000  0.995 -0.002  0.002
 -0.000 -0.002 -0.002  0.995  0.000
 -0.000 -0.002  0.002  0.000  0.995
   spin  2
    eigenvalues: 
  0.122  0.122  0.125  0.341  0.341
    eigenvectors:
  0.000  0.000  1.000  0.000  0.000
  0.030  0.365  0.000  0.005  0.600
  0.365  0.030  0.000  0.600  0.005
  0.157  0.448  0.000  0.174  0.221
  0.448  0.157  0.000  0.221  0.174
    occupations:
  0.125 -0.000 -0.000 -0.000 -0.000
 -0.000  0.254 -0.000  0.073  0.078
 -0.000 -0.000  0.254  0.078 -0.073
 -0.000  0.073  0.078  0.208  0.000
 -0.000  0.078 -0.073  0.000  0.208
atomic mag. moment =   3.92628
N of occupied +U levels =   36.146867
 --- exit write_ns ---
 Atomic wfc used for LDA+U Projector are NOT orthogonalized
     Starting wfcs are  204 randomized atomic wfcs

     Band Structure Calculation
     CG style diagonalization

     Computing kpt #:     1  of    62
     c_bands:  4 eigenvalues not converged
     total cpu time spent up to now is      424.6 secs

     Computing kpt #:     2  of    62
     c_bands:  2 eigenvalues not converged
     total cpu time spent up to now is      725.3 secs

     Computing kpt #:     3  of    62
     c_bands:  2 eigenvalues not converged
     total cpu time spent up to now is     1011.9 secs

     Computing kpt #:     4  of    62
     c_bands:  1 eigenvalues not converged
     total cpu time spent up to now is     1288.1 secs

     Computing kpt #:     5  of    62
     c_bands:  1 eigenvalues not converged
     total cpu time spent up to now is     1563.7 secs

     Computing kpt #:     6  of    62
     c_bands:  1 eigenvalues not converged
     total cpu time spent up to now is     1837.4 secs

     Computing kpt #:     7  of    62
     c_bands:  1 eigenvalues not converged
     total cpu time spent up to now is     2112.3 secs

     Computing kpt #:     8  of    62
     c_bands:  1 eigenvalues not converged
     total cpu time spent up to now is     2388.3 secs

     Computing kpt #:     9  of    62
     c_bands:  1 eigenvalues not converged
     total cpu time spent up to now is     2667.7 secs

     Computing kpt #:    10  of    62
     c_bands:  1 eigenvalues not converged
     total cpu time spent up to now is     2950.1 secs

     Computing kpt #:    11  of    62
     total cpu time spent up to now is     3228.6 secs

     Computing kpt #:    12  of    62
     c_bands:  1 eigenvalues not converged
     total cpu time spent up to now is     3513.1 secs

     Computing kpt #:    13  of    62
     c_bands:  1 eigenvalues not converged
     total cpu time spent up to now is     3792.2 secs

     Computing kpt #:    14  of    62
     c_bands:  1 eigenvalues not converged
     total cpu time spent up to now is     4068.8 secs

     Computing kpt #:    15  of    62
     c_bands:  1 eigenvalues not converged
     total cpu time spent up to now is     4347.0 secs

     Computing kpt #:    16  of    62
     c_bands:  1 eigenvalues not converged
     total cpu time spent up to now is     4624.2 secs

     Computing kpt #:    17  of    62
     c_bands:  1 eigenvalues not converged
     total cpu time spent up to now is     4902.1 secs

     Computing kpt #:    18  of    62
     c_bands:  1 eigenvalues not converged
     total cpu time spent up to now is     5182.8 secs

     Computing kpt #:    19  of    62
     c_bands:  1 eigenvalues not converged
     total cpu time spent up to now is     5461.0 secs

     Computing kpt #:    20  of    62
     c_bands:  1 eigenvalues not converged
     total cpu time spent up to now is     5735.2 secs

     Computing kpt #:    21  of    62
     c_bands:  1 eigenvalues not converged
     total cpu time spent up to now is     6009.6 secs

     Computing kpt #:    22  of    62
     total cpu time spent up to now is     6266.8 secs

     Computing kpt #:    23  of    62
     total cpu time spent up to now is     6524.7 secs

     Computing kpt #:    24  of    62
     total cpu time spent up to now is     6800.3 secs

     Computing kpt #:    25  of    62
     total cpu time spent up to now is     7042.2 secs

     Computing kpt #:    26  of    62
     total cpu time spent up to now is     7288.4 secs

     Computing kpt #:    27  of    62
     c_bands:  1 eigenvalues not converged
     total cpu time spent up to now is     7568.5 secs

     Computing kpt #:    28  of    62
     c_bands:  1 eigenvalues not converged
     total cpu time spent up to now is     7848.4 secs

     Computing kpt #:    29  of    62
     total cpu time spent up to now is     8126.2 secs

     Computing kpt #:    30  of    62
     c_bands:  1 eigenvalues not converged
     total cpu time spent up to now is     8401.9 secs

     Computing kpt #:    31  of    62
     c_bands:  4 eigenvalues not converged
     total cpu time spent up to now is     8676.8 secs

     Computing kpt #:    32  of    62
     c_bands:  4 eigenvalues not converged
     total cpu time spent up to now is     8950.6 secs

     Computing kpt #:    33  of    62
     c_bands:  2 eigenvalues not converged
     total cpu time spent up to now is     9224.7 secs

     Computing kpt #:    34  of    62
     total cpu time spent up to now is     9500.0 secs

     Computing kpt #:    35  of    62
     c_bands:  1 eigenvalues not converged
     total cpu time spent up to now is     9772.5 secs

     Computing kpt #:    36  of    62
     c_bands:  1 eigenvalues not converged
     total cpu time spent up to now is    10046.6 secs

     Computing kpt #:    37  of    62
     c_bands:  1 eigenvalues not converged
     total cpu time spent up to now is    10321.0 secs

     Computing kpt #:    38  of    62
     c_bands:  1 eigenvalues not converged
     total cpu time spent up to now is    10595.6 secs

     Computing kpt #:    39  of    62
     c_bands:  1 eigenvalues not converged
     total cpu time spent up to now is    10877.3 secs

     Computing kpt #:    40  of    62
     total cpu time spent up to now is    11153.9 secs

     Computing kpt #:    41  of    62
     c_bands:  1 eigenvalues not converged
     total cpu time spent up to now is    11434.4 secs

     Computing kpt #:    42  of    62
     c_bands:  1 eigenvalues not converged
     total cpu time spent up to now is    11712.5 secs

     Computing kpt #:    43  of    62
     c_bands:  1 eigenvalues not converged
     total cpu time spent up to now is    11991.0 secs

     Computing kpt #:    44  of    62
     c_bands:  1 eigenvalues not converged
     total cpu time spent up to now is    12269.1 secs

     Computing kpt #:    45  of    62
     c_bands:  1 eigenvalues not converged
     total cpu time spent up to now is    12548.2 secs

     Computing kpt #:    46  of    62
     c_bands:  1 eigenvalues not converged
     total cpu time spent up to now is    12830.9 secs

     Computing kpt #:    47  of    62
     c_bands:  1 eigenvalues not converged
     total cpu time spent up to now is    13108.7 secs

     Computing kpt #:    48  of    62
     c_bands:  1 eigenvalues not converged
     total cpu time spent up to now is    13389.1 secs

     Computing kpt #:    49  of    62
     c_bands:  1 eigenvalues not converged
     total cpu time spent up to now is    13667.5 secs

     Computing kpt #:    50  of    62
     c_bands:  1 eigenvalues not converged
     total cpu time spent up to now is    13944.3 secs

     Computing kpt #:    51  of    62
     c_bands:  1 eigenvalues not converged
     total cpu time spent up to now is    14218.1 secs

     Computing kpt #:    52  of    62
     c_bands:  1 eigenvalues not converged
     total cpu time spent up to now is    14491.6 secs

     Computing kpt #:    53  of    62
     total cpu time spent up to now is    14771.2 secs

     Computing kpt #:    54  of    62
     total cpu time spent up to now is    15033.1 secs

     Computing kpt #:    55  of    62
     total cpu time spent up to now is    15296.3 secs

     Computing kpt #:    56  of    62
     total cpu time spent up to now is    15540.2 secs

     Computing kpt #:    57  of    62
     total cpu time spent up to now is    15804.9 secs

     Computing kpt #:    58  of    62
     c_bands:  1 eigenvalues not converged
     total cpu time spent up to now is    16080.8 secs

     Computing kpt #:    59  of    62
     c_bands:  1 eigenvalues not converged
     total cpu time spent up to now is    16354.8 secs

     Computing kpt #:    60  of    62
     total cpu time spent up to now is    16629.3 secs

     Computing kpt #:    61  of    62
     c_bands:  2 eigenvalues not converged
     total cpu time spent up to now is    16907.0 secs

     Computing kpt #:    62  of    62
     c_bands:  4 eigenvalues not converged
     total cpu time spent up to now is    17185.0 secs

     ethr =  3.40E-11,  avg # of iterations = 48.4

     total cpu time spent up to now is    17185.0 secs

     End of band structure calculation

 ------ SPIN UP ------------


          k = 0.0000 0.0000 0.0000 ( 10359 PWs)   bands (ev):

   -78.9421 -78.9409 -78.9394 -73.8049 -73.8030 -73.8017 -44.9604 -44.9591
   -44.9571 -44.8860 -44.8859 -44.8847 -44.8847 -44.8836 -44.8836 -39.9521
   -39.9508 -39.9494 -39.8989 -39.8989 -39.8968 -39.8968 -39.8955 -39.8955
   -10.4569 -10.4569 -10.4158 -10.4158 -10.4147 -10.4147 -10.3845 -10.3650
   -10.3650 -10.3630 -10.3626 -10.3586 -10.3586 -10.3581 -10.3581 -10.3186
   -10.3185 -10.3108 -10.3108 -10.3106 -10.3106 -10.2989 -10.2989 -10.2975
   -10.2855 -10.2855 -10.2854 -10.2854 -10.2586 -10.2586  -7.1685  -6.7534
    -6.7502  -5.7915  -5.7898  -5.2870  -5.2870  -5.2800  -5.2799  -5.2333
    -5.2236  -5.2235  -5.0621  -5.0620  -4.9950  -4.9949  -4.9479  -4.9479
     1.8274   1.9012   1.9017   2.6719   2.6735   3.5308   4.7128   4.7128
     4.8792   4.8793   4.9038   4.9039   5.1645   5.1645   5.1753   5.1753
     5.2187   5.2525   5.2525   5.3344   5.3366   5.6192   6.4022   6.4048
     6.7271   6.7271   6.8626   6.9806   6.9806   7.0023   7.0023   7.5608
     7.5616   7.5787   7.5787   7.7111   7.7112   7.8008   8.1763   8.1763
     8.5379   8.5404   8.9429   8.9429   9.2608   9.2609   9.4157   9.4157
     9.4943   9.4943   9.5957   9.5958   9.6130   9.6134  10.2383  10.2383
    10.2893  10.2893  10.3465  10.3466  10.3552  10.6607  10.6607  10.8459
    11.0865  11.0865  11.1349  11.1635  11.1639  11.3676  11.3676  11.5020
    11.5041  11.5570  11.5571  14.1157  14.1165  14.2610  14.2610  14.2746
    14.2985  14.2985  14.3635  14.3635  15.0840  15.0840  15.1954  15.1954
    15.3912  15.3912  15.8701  15.8713  16.1697  16.1722  17.3779  17.3780
    17.4020  17.4020  17.4817  17.4817  17.8861  17.9133  17.9138  17.9381

          k = 0.0500 0.0289 0.0000 ( 10359 PWs)   bands (ev):

   -78.9421 -78.9409 -78.9394 -73.8049 -73.8030 -73.8017 -44.9604 -44.9591
   -44.9571 -44.8860 -44.8859 -44.8847 -44.8847 -44.8836 -44.8836 -39.9521
   -39.9508 -39.9494 -39.8989 -39.8989 -39.8968 -39.8968 -39.8955 -39.8955
   -10.4563 -10.4557 -10.4210 -10.4204 -10.4094 -10.4087 -10.3842 -10.3647
   -10.3645 -10.3637 -10.3629 -10.3625 -10.3615 -10.3539 -10.3537 -10.3192
   -10.3189 -10.3133 -10.3126 -10.3083 -10.3079 -10.2993 -10.2992 -10.2977
   -10.2896 -10.2893 -10.2821 -10.2818 -10.2594 -10.2589  -7.1597  -6.7461
    -6.7429  -5.7904  -5.7885  -5.3063  -5.2968  -5.2958  -5.2820  -5.2236
    -5.2225  -5.2138  -5.0685  -5.0680  -4.9925  -4.9924  -4.9520  -4.9505
     1.8243   1.8979   1.8994   2.6613   2.6635   3.5001   4.7172   4.7239
     4.8804   4.8847   4.9155   4.9197   5.1453   5.1533   5.1704   5.1750
     5.2327   5.2355   5.2446   5.3535   5.3560   5.6329   6.4017   6.4043
     6.7388   6.7463   6.8586   6.9754   6.9789   7.0479   7.0520   7.5264
     7.5333   7.5671   7.6146   7.7362   7.7434   7.8366   8.1741   8.1754
     8.5553   8.5590   8.9348   8.9393   9.2675   9.2693   9.4033   9.4100
     9.4367   9.4475   9.5754   9.6114   9.6674   9.6870  10.2147  10.2348
    10.2699  10.2757  10.3284  10.3340  10.3408  10.5973  10.6352  10.8589
    11.0729  11.0890  11.1026  11.1370  11.1838  11.3742  11.3912  11.4911
    11.5062  11.5827  11.5990  14.1200  14.1208  14.2570  14.2612  14.2851
    14.2980  14.2990  14.3658  14.3664  15.0655  15.0706  15.1968  15.2025
    15.3775  15.3856  15.8650  15.8683  16.1696  16.1722  17.3054  17.3154
    17.3926  17.4511  17.4536  17.4639  17.7817  17.8004  17.9175  17.9659

          k = 0.1000 0.0577 0.0000 ( 10368 PWs)   bands (ev):

   -78.9421 -78.9409 -78.9394 -73.8049 -73.8030 -73.8017 -44.9604 -44.9591
   -44.9571 -44.8860 -44.8859 -44.8847 -44.8847 -44.8836 -44.8836 -39.9521
   -39.9508 -39.9494 -39.8989 -39.8989 -39.8968 -39.8968 -39.8955 -39.8955
   -10.4549 -10.4521 -10.4265 -10.4240 -10.4035 -10.4014 -10.3834 -10.3678
   -10.3673 -10.3637 -10.3628 -10.3622 -10.3614 -10.3495 -10.3489 -10.3214
   -10.3199 -10.3159 -10.3135 -10.3065 -10.3052 -10.3006 -10.3003 -10.2981
   -10.2939 -10.2931 -10.2796 -10.2783 -10.2620 -10.2600  -7.1334  -6.7245
    -6.7212  -5.7897  -5.7834  -5.3546  -5.3224  -5.3169  -5.2878  -5.2297
    -5.2228  -5.1858  -5.0844  -5.0809  -4.9881  -4.9872  -4.9638  -4.9580
     1.8160   1.8856   1.8965   2.6272   2.6389   3.4143   4.7295   4.7551
     4.8869   4.9046   4.9401   4.9560   5.0945   5.1336   5.1598   5.1732
     5.2075   5.2429   5.2697   5.3861   5.3881   5.6739   6.4007   6.4043
     6.7464   6.7999   6.8826   7.0036   7.0150   7.1330   7.1513   7.4585
     7.4922   7.5475   7.7082   7.7714   7.8052   7.9313   8.1663   8.1763
     8.6000   8.6167   8.9022   8.9308   9.2702   9.2942   9.3658   9.3770
     9.3820   9.3931   9.5661   9.6537   9.7454   9.7755  10.1361  10.2133
    10.2206  10.2369  10.2583  10.2973  10.3311  10.4849  10.5856  10.8724
    10.9387  10.9905  11.0681  11.2138  11.2946  11.3454  11.4051  11.4735
    11.5266  11.6367  11.6808  14.1321  14.1333  14.2542  14.2621  14.2957
    14.3026  14.3063  14.3718  14.3747  15.0147  15.0423  15.1901  15.2215
    15.3384  15.3692  15.8387  15.8646  16.1656  16.1761  17.2000  17.2138
    17.2511  17.3680  17.4829  17.5227  17.5997  17.6733  17.9378  17.9747

          k = 0.1500 0.0866 0.0000 ( 10368 PWs)   bands (ev):

   -78.9421 -78.9409 -78.9394 -73.8049 -73.8030 -73.8017 -44.9604 -44.9591
   -44.9571 -44.8860 -44.8859 -44.8847 -44.8847 -44.8836 -44.8836 -39.9521
   -39.9508 -39.9495 -39.8989 -39.8989 -39.8968 -39.8968 -39.8955 -39.8955
   -10.4527 -10.4464 -10.4318 -10.4257 -10.3976 -10.3932 -10.3823 -10.3719
   -10.3719 -10.3623 -10.3611 -10.3607 -10.3604 -10.3452 -10.3440 -10.3242
   -10.3209 -10.3185 -10.3139 -10.3051 -10.3028 -10.3026 -10.3017 -10.2989
   -10.2980 -10.2966 -10.2782 -10.2748 -10.2664 -10.2618  -7.0900  -6.6899
    -6.6848  -5.7956  -5.7735  -5.4144  -5.3550  -5.3445  -5.2967  -5.2481
    -5.2302  -5.1605  -5.1042  -5.0930  -4.9852  -4.9831  -4.9820  -4.9696
     1.8056   1.8633   1.8976   2.5703   2.6067   3.2881   4.7485   4.8015
     4.9017   4.9205   4.9649   4.9783   5.0567   5.1313   5.1457   5.1687
     5.1929   5.2432   5.3232   5.4113   5.4226   5.7405   6.4029   6.4083
     6.7284   6.8798   6.9660   7.0641   7.0757   7.2362   7.2833   7.3931
     7.4748   7.5373   7.7954   7.8315   7.8633   8.0719   8.1533   8.1860
     8.6642   8.6803   8.8678   8.9146   9.2296   9.2809   9.3041   9.3639
     9.3832   9.3980   9.5701   9.7040   9.8141   9.8272   9.9929  10.1508
    10.1626  10.1653  10.2167  10.2595  10.3167  10.3654  10.5453  10.7835
    10.8696  10.8810  11.0731  11.2759  11.2877  11.3953  11.4184  11.4531
    11.5369  11.7010  11.7483  14.1492  14.1530  14.2537  14.2655  14.2936
    14.3116  14.3335  14.3805  14.3855  14.9448  15.0094  15.1695  15.2434
    15.2791  15.3431  15.7774  15.8626  16.1526  16.1916  16.9722  17.1178
    17.1788  17.2468  17.4120  17.4871  17.5441  17.5772  17.8500  17.9576

          k = 0.2000 0.1155 0.0000 ( 10360 PWs)   bands (ev):

   -78.9421 -78.9409 -78.9394 -73.8049 -73.8030 -73.8017 -44.9604 -44.9591
   -44.9571 -44.8860 -44.8859 -44.8847 -44.8847 -44.8836 -44.8836 -39.9521
   -39.9508 -39.9495 -39.8989 -39.8989 -39.8968 -39.8968 -39.8955 -39.8955
   -10.4495 -10.4389 -10.4367 -10.4256 -10.3919 -10.3849 -10.3812 -10.3768
   -10.3757 -10.3607 -10.3603 -10.3592 -10.3573 -10.3412 -10.3393 -10.3267
   -10.3217 -10.3205 -10.3147 -10.3053 -10.3042 -10.3040 -10.3024 -10.3002
   -10.2999 -10.2995 -10.2782 -10.2720 -10.2717 -10.2644  -7.0301  -6.6443
    -6.6340  -5.8167  -5.7594  -5.4852  -5.3848  -5.3763  -5.3078  -5.2801
    -5.2454  -5.1389  -5.1244  -5.1005  -5.0066  -4.9850  -4.9837  -4.9802
     1.7969   1.8321   1.9070   2.4948   2.5729   3.1378   4.7736   4.8559
     4.8826   4.9220   4.9633   4.9976   5.0745   5.1291   5.1428   5.1629
     5.2191   5.2410   5.3860   5.4269   5.4619   5.8295   6.4145   6.4180
     6.7156   6.9740   7.0786   7.1241   7.1396   7.3357   7.3437   7.4437
     7.5059   7.5448   7.8147   7.9054   7.9603   8.1425   8.2123   8.2516
     8.6453   8.7356   8.8926   8.9286   9.1863   9.2228   9.2254   9.3208
     9.4264   9.4562   9.6048   9.7559   9.8204   9.8210   9.8439  10.0701
    10.0964  10.1212  10.1779  10.2346  10.2639  10.3012  10.5116  10.6605
    10.7504  10.8827  11.0801  11.2188  11.3252  11.3736  11.4230  11.5218
    11.5304  11.7500  11.7825  14.1672  14.1769  14.2533  14.2726  14.2949
    14.3266  14.3649  14.3915  14.3949  14.8643  14.9761  15.1382  15.2068
    15.2627  15.3085  15.6813  15.8634  16.1305  16.2219  16.7355  17.0085
    17.0200  17.0990  17.3336  17.4584  17.4866  17.5673  17.6457  17.9266

          k = 0.2500 0.1443 0.0000 ( 10360 PWs)   bands (ev):

   -78.9421 -78.9409 -78.9394 -73.8049 -73.8030 -73.8017 -44.9604 -44.9591
   -44.9571 -44.8860 -44.8859 -44.8847 -44.8847 -44.8836 -44.8836 -39.9521
   -39.9508 -39.9495 -39.8989 -39.8989 -39.8968 -39.8968 -39.8955 -39.8955
   -10.4455 -10.4410 -10.4300 -10.4237 -10.3868 -10.3819 -10.3804 -10.3799
   -10.3758 -10.3608 -10.3579 -10.3571 -10.3538 -10.3379 -10.3347 -10.3289
   -10.3224 -10.3217 -10.3158 -10.3082 -10.3069 -10.3056 -10.3038 -10.3025
   -10.3008 -10.2984 -10.2798 -10.2782 -10.2691 -10.2675  -6.9547  -6.5898
    -6.5695  -5.8622  -5.7419  -5.5671  -5.4127  -5.4015  -5.3213  -5.3199
    -5.2649  -5.1443  -5.1217  -5.1037  -5.0345  -5.0000  -4.9853  -4.9804
     1.7939   1.7955   1.9282   2.4064   2.5420   2.9768   4.8033   4.8180
     4.9100   4.9218   4.9568   5.0366   5.1134   5.1144   5.1436   5.1598
     5.2375   5.2760   5.4419   5.4495   5.5061   5.9352   6.4307   6.4413
     6.7251   7.0640   7.1362   7.1999   7.2033   7.3471   7.3975   7.5735
     7.5883   7.6086   7.8467   7.9312   8.0766   8.1533   8.2610   8.4589
     8.5462   8.7765   8.8923   8.9974   9.1340   9.1732   9.2000   9.2603
     9.4053   9.5191   9.6539   9.6822   9.7541   9.8120   9.8442  10.0150
    10.0164  10.1084  10.1184  10.2145  10.2174  10.2951  10.4752  10.6016
    10.6430  10.8743  11.0844  11.1483  11.3403  11.3636  11.3821  11.5108
    11.5935  11.7702  11.7800  14.1816  14.2009  14.2527  14.2821  14.3013
    14.3452  14.3980  14.4010  14.4046  14.7771  14.9453  15.1026  15.1294
    15.2669  15.2759  15.5715  15.8672  16.1043  16.2631  16.5050  16.7961
    16.8812  16.9325  17.3432  17.3964  17.4261  17.4619  17.5301  17.8565

          k = 0.3000 0.1732 0.0000 ( 10322 PWs)   bands (ev):

   -78.9421 -78.9409 -78.9394 -73.8049 -73.8030 -73.8017 -44.9604 -44.9591
   -44.9571 -44.8860 -44.8859 -44.8847 -44.8847 -44.8836 -44.8836 -39.9521
   -39.9508 -39.9495 -39.8989 -39.8989 -39.8968 -39.8968 -39.8955 -39.8955
   -10.4449 -10.4405 -10.4205 -10.4194 -10.3885 -10.3831 -10.3815 -10.3799
   -10.3684 -10.3613 -10.3551 -10.3548 -10.3501 -10.3356 -10.3309 -10.3303
   -10.3227 -10.3218 -10.3169 -10.3112 -10.3100 -10.3084 -10.3057 -10.3024
   -10.3017 -10.2972 -10.2852 -10.2819 -10.2715 -10.2666  -6.8650  -6.5298
    -6.4926  -5.9359  -5.7225  -5.6592  -5.4562  -5.4003  -5.3622  -5.3319
    -5.2841  -5.1637  -5.1131  -5.1043  -5.0619  -5.0142  -4.9878  -4.9830
     1.7571   1.8009   1.9632   2.3112   2.5166   2.8149   4.7542   4.8323
     4.8946   4.9552   4.9782   5.0717   5.1046   5.1479   5.1509   5.1643
     5.2362   5.3126   5.4718   5.5059   5.5533   6.0523   6.4436   6.4825
     6.7604   7.1156   7.1327   7.2283   7.3355   7.4043   7.4109   7.6198
     7.6750   7.7550   7.9156   7.9599   8.1670   8.2070   8.3317   8.4341
     8.6738   8.7553   8.9293   8.9671   9.0505   9.1261   9.1847   9.2947
     9.3392   9.5133   9.5645   9.6725   9.7104   9.8921   9.8980   9.9220
    10.0039  10.0783  10.0877  10.1844  10.1956  10.2996  10.4325  10.5686
    10.6202  10.8554  11.0826  11.0846  11.2923  11.3312  11.3943  11.4812
    11.6299  11.7443  11.7600  14.1891  14.2220  14.2518  14.2917  14.3070
    14.3573  14.4080  14.4205  14.4303  14.6890  14.9190  15.0543  15.0688
    15.2199  15.2797  15.4779  15.8754  16.0814  16.2939  16.3079  16.5750
    16.7464  16.7549  17.1388  17.3616  17.4314  17.4372  17.4829  17.7793

          k = 0.3500 0.2021 0.0000 ( 10326 PWs)   bands (ev):

   -78.9421 -78.9409 -78.9394 -73.8049 -73.8030 -73.8017 -44.9604 -44.9591
   -44.9571 -44.8860 -44.8859 -44.8847 -44.8847 -44.8836 -44.8836 -39.9521
   -39.9508 -39.9495 -39.8989 -39.8989 -39.8968 -39.8968 -39.8955 -39.8955
   -10.4479 -10.4351 -10.4150 -10.4094 -10.3947 -10.3858 -10.3810 -10.3780
   -10.3627 -10.3610 -10.3527 -10.3520 -10.3469 -10.3345 -10.3327 -10.3271
   -10.3227 -10.3209 -10.3171 -10.3140 -10.3133 -10.3106 -10.3079 -10.3025
   -10.3013 -10.2963 -10.2920 -10.2853 -10.2757 -10.2648  -6.7627  -6.4689
    -6.4051  -6.0333  -5.7599  -5.7030  -5.5072  -5.3950  -5.3849  -5.3424
    -5.2982  -5.1818  -5.1272  -5.1032  -5.0758  -5.0238  -4.9907  -4.9877
     1.7222   1.8197   2.0133   2.2153   2.4977   2.6592   4.6992   4.8522
     4.8724   4.9895   4.9970   5.0970   5.1052   5.1593   5.1787   5.1800
     5.2397   5.3137   5.5170   5.5504   5.5983   6.1768   6.4517   6.5350
     6.8138   7.0667   7.1787   7.2594   7.3703   7.4661   7.4910   7.6744
     7.7336   7.8296   8.0259   8.0371   8.2315   8.2659   8.3497   8.4178
     8.7106   8.8207   8.8983   8.9424   9.0104   9.0872   9.1169   9.2837
     9.3268   9.4065   9.5696   9.6814   9.7058   9.8466   9.9281   9.9931
    10.0330  10.0404  10.0774  10.1571  10.1847  10.3153  10.3848  10.5502
    10.6891  10.8299  11.0328  11.0775  11.2270  11.2729  11.4185  11.4449
    11.6332  11.6841  11.7271  14.1862  14.2404  14.2501  14.2995  14.3006
    14.3484  14.4251  14.4409  14.4581  14.6149  14.8983  14.9882  15.0425
    15.1692  15.2735  15.4202  15.8912  16.0645  16.1165  16.3486  16.3924
    16.5749  16.6207  16.8955  17.3403  17.3647  17.4931  17.4992  17.7019

          k = 0.4000 0.2309 0.0000 ( 10342 PWs)   bands (ev):

   -78.9421 -78.9409 -78.9394 -73.8049 -73.8030 -73.8017 -44.9604 -44.9591
   -44.9571 -44.8860 -44.8859 -44.8847 -44.8847 -44.8836 -44.8836 -39.9521
   -39.9508 -39.9495 -39.8989 -39.8989 -39.8968 -39.8968 -39.8955 -39.8955
   -10.4502 -10.4291 -10.4090 -10.4013 -10.3992 -10.3880 -10.3838 -10.3766
   -10.3629 -10.3560 -10.3505 -10.3488 -10.3449 -10.3353 -10.3345 -10.3245
   -10.3224 -10.3198 -10.3168 -10.3162 -10.3155 -10.3123 -10.3099 -10.3026
   -10.2998 -10.2982 -10.2958 -10.2887 -10.2802 -10.2635  -6.6499  -6.4141
    -6.3107  -6.1446  -5.8669  -5.6853  -5.5588  -5.4173  -5.3665  -5.3504
    -5.2998  -5.1970  -5.1618  -5.1006  -5.0794  -5.0255  -4.9946  -4.9932
     1.6943   1.8524   2.0753   2.1275   2.4850   2.5140   4.6571   4.8576
     4.8589   5.0104   5.0149   5.1107   5.1172   5.1739   5.1991   5.2018
     5.2467   5.2931   5.5592   5.5810   5.6351   6.3058   6.4543   6.5854
     6.8664   6.9942   7.2104   7.3064   7.3259   7.5493   7.5826   7.7334
     7.7726   7.8514   8.1162   8.1414   8.1925   8.2895   8.4337   8.5007
     8.6625   8.7459   8.8272   8.9162   9.0304   9.0695   9.1636   9.2603
     9.2791   9.3337   9.5613   9.6780   9.7539   9.8118   9.9411   9.9926
    10.0434  10.0641  10.0876  10.1693  10.1844  10.3395  10.3646  10.5812
    10.7666  10.8065  11.0046  11.0695  11.1503  11.2114  11.4095  11.4321
    11.6123  11.6156  11.6845  14.1683  14.2470  14.2551  14.2859  14.3040
    14.3225  14.4499  14.4605  14.4783  14.5713  14.8832  14.9359  15.0282
    15.1187  15.2654  15.3940  15.9151  15.9871  16.0444  16.2892  16.3769
    16.4027  16.5208  16.6814  17.2456  17.3875  17.5214  17.5736  17.6330

          k = 0.4500 0.2598 0.0000 ( 10328 PWs)   bands (ev):

   -78.9421 -78.9409 -78.9394 -73.8049 -73.8030 -73.8017 -44.9604 -44.9591
   -44.9571 -44.8860 -44.8859 -44.8847 -44.8847 -44.8836 -44.8836 -39.9521
   -39.9508 -39.9495 -39.8989 -39.8989 -39.8968 -39.8968 -39.8955 -39.8955
   -10.4516 -10.4227 -10.4091 -10.4012 -10.3901 -10.3894 -10.3883 -10.3779
   -10.3633 -10.3524 -10.3480 -10.3454 -10.3444 -10.3384 -10.3348 -10.3225
   -10.3223 -10.3190 -10.3187 -10.3160 -10.3154 -10.3132 -10.3105 -10.3039
   -10.3015 -10.2988 -10.2955 -10.2904 -10.2846 -10.2627  -6.5293  -6.3747
    -6.2850  -6.1894  -5.9773  -5.6714  -5.5994  -5.4303  -5.3585  -5.3551
    -5.2794  -5.2074  -5.2024  -5.0965  -5.0847  -5.0202  -5.0027  -4.9952
     1.6763   1.8995   2.0336   2.1676   2.3825   2.4779   4.6306   4.8518
     4.8559   5.0199   5.0264   5.1162   5.1437   5.1826   5.2121   5.2214
     5.2532   5.2639   5.5875   5.5976   5.6588   6.4338   6.4536   6.6017
     6.8961   6.9272   7.2355   7.2886   7.3572   7.5671   7.6882   7.7933
     7.7939   7.8720   7.9923   8.2159   8.3033   8.3573   8.4956   8.5414
     8.6086   8.6385   8.7990   8.8931   8.9524   9.0629   9.2438   9.2551
     9.2594   9.3380   9.5154   9.6285   9.8157   9.8168   9.9548   9.9824
    10.0350  10.0403  10.1241  10.1788  10.2315  10.3090  10.4132  10.6298
    10.7963  10.8112  11.0055  11.0643  11.0882  11.1547  11.3894  11.4238
    11.5498  11.6025  11.6441  14.1407  14.2440  14.2535  14.2861  14.3028
    14.3036  14.4722  14.4735  14.4881  14.5539  14.8759  14.8998  15.0284
    15.0749  15.2630  15.3833  15.9148  15.9188  16.0482  16.2492  16.2925
    16.3835  16.4654  16.5052  17.1804  17.4342  17.5376  17.5658  17.6609

          k = 0.5000 0.2887 0.0000 ( 10312 PWs)   bands (ev):

   -78.9421 -78.9409 -78.9394 -73.8049 -73.8030 -73.8017 -44.9604 -44.9591
   -44.9571 -44.8860 -44.8859 -44.8847 -44.8847 -44.8836 -44.8836 -39.9521
   -39.9508 -39.9495 -39.8989 -39.8989 -39.8968 -39.8968 -39.8955 -39.8955
   -10.4520 -10.4161 -10.4156 -10.3948 -10.3944 -10.3897 -10.3827 -10.3825
   -10.3633 -10.3510 -10.3459 -10.3457 -10.3419 -10.3417 -10.3350 -10.3221
   -10.3208 -10.3206 -10.3185 -10.3157 -10.3156 -10.3134 -10.3083 -10.3081
   -10.3001 -10.2999 -10.2954 -10.2885 -10.2884 -10.2623  -6.4052  -6.4037
    -6.3600  -6.0883  -6.0871  -5.6649  -5.6161  -5.4346  -5.3578  -5.3564
    -5.2441  -5.2430  -5.2109  -5.0915  -5.0904  -5.0119  -5.0115  -4.9959
     1.6701   1.9600   1.9611   2.2663   2.2667   2.4756   4.6216   4.8513
     4.8528   5.0253   5.0268   5.1175   5.1719   5.1732   5.2165   5.2385
     5.2391   5.2559   5.5993   5.6008   5.6670   6.4529   6.5440   6.5458
     6.9027   6.9034   7.2590   7.2605   7.3819   7.5644   7.7754   7.7764
     7.8643   7.8650   7.8842   8.2414   8.4029   8.4031   8.4958   8.4977
     8.5405   8.6420   8.8581   8.8588   8.8876   9.0606   9.2411   9.2426
     9.2638   9.4368   9.4380   9.6009   9.8304   9.8313   9.9812   9.9913
     9.9925  10.0372  10.1550  10.1553  10.2830  10.2838  10.4303  10.6528
    10.8058  10.8068  11.0175  11.0655  11.0661  11.1252  11.3977  11.3996
    11.5238  11.6131  11.6144  14.1269  14.2446  14.2463  14.2962  14.2969
    14.2976  14.4774  14.4853  14.4868  14.5498  14.8799  14.8807  15.0437
    15.0442  15.2633  15.3802  15.8984  15.8994  16.1255  16.1260  16.3725
    16.3728  16.3780  16.4534  17.1575  17.4966  17.4978  17.5434  17.6653

          k = 0.5167 0.2598 0.0000 ( 10322 PWs)   bands (ev):

   -78.9421 -78.9409 -78.9394 -73.8049 -73.8030 -73.8017 -44.9604 -44.9591
   -44.9571 -44.8860 -44.8859 -44.8847 -44.8847 -44.8836 -44.8836 -39.9521
   -39.9508 -39.9495 -39.8989 -39.8989 -39.8968 -39.8968 -39.8955 -39.8955
   -10.4517 -10.4160 -10.4156 -10.3953 -10.3949 -10.3899 -10.3824 -10.3822
   -10.3634 -10.3510 -10.3460 -10.3456 -10.3418 -10.3416 -10.3351 -10.3221
   -10.3208 -10.3206 -10.3184 -10.3157 -10.3156 -10.3135 -10.3083 -10.3081
   -10.3000 -10.2998 -10.2955 -10.2885 -10.2885 -10.2627  -6.4030  -6.4016
    -6.3576  -6.0886  -6.0859  -5.6754  -5.6143  -5.4290  -5.3653  -5.3540
    -5.2450  -5.2427  -5.2107  -5.1011  -5.0830  -5.0147  -5.0079  -4.9954
     1.6740   1.9615   1.9629   2.2627   2.2632   2.4703   4.6224   4.8483
     4.8498   5.0217   5.0286   5.1164   5.1639   5.1794   5.2162   5.2420
     5.2507   5.2609   5.5974   5.6030   5.6661   6.4532   6.5409   6.5478
     6.8770   6.9330   7.2467   7.2767   7.3835   7.5604   7.7537   7.8055
     7.8350   7.8830   7.9001   8.2361   8.3643   8.4022   8.5204   8.5226
     8.5317   8.6464   8.8351   8.8671   8.8925   9.0612   9.2343   9.2380
     9.2660   9.4326   9.4549   9.5992   9.8264   9.8334   9.9800   9.9840
     9.9975  10.0384  10.1565  10.1584  10.2785  10.2901  10.4305  10.6468
    10.7766  10.8366  11.0199  11.0275  11.1006  11.1339  11.3741  11.4202
    11.5209  11.5947  11.6285  14.1321  14.2436  14.2465  14.2945  14.2976
    14.3051  14.4765  14.4817  14.4894  14.5501  14.8782  14.8816  15.0329
    15.0568  15.2663  15.3765  15.8773  15.9064  16.0958  16.1330  16.3709
    16.3784  16.3982  16.4570  17.1596  17.4815  17.4828  17.5446  17.6551

          k = 0.5333 0.2309 0.0000 ( 10328 PWs)   bands (ev):

   -78.9421 -78.9409 -78.9394 -73.8049 -73.8030 -73.8017 -44.9604 -44.9591
   -44.9571 -44.8860 -44.8859 -44.8847 -44.8847 -44.8836 -44.8836 -39.9521
   -39.9508 -39.9495 -39.8989 -39.8989 -39.8968 -39.8968 -39.8955 -39.8955
   -10.4505 -10.4159 -10.4154 -10.3965 -10.3961 -10.3905 -10.3816 -10.3814
   -10.3635 -10.3507 -10.3459 -10.3454 -10.3414 -10.3411 -10.3352 -10.3221
   -10.3209 -10.3207 -10.3182 -10.3156 -10.3155 -10.3134 -10.3085 -10.3082
   -10.2997 -10.2994 -10.2958 -10.2888 -10.2887 -10.2638  -6.3967  -6.3951
    -6.3504  -6.0885  -6.0835  -5.7036  -5.6100  -5.4143  -5.3779  -5.3567
    -5.2466  -5.2427  -5.2101  -5.1117  -5.0793  -5.0156  -5.0041  -4.9941
     1.6857   1.9662   1.9682   2.2523   2.2529   2.4548   4.6250   4.8398
     4.8416   5.0156   5.0298   5.1132   5.1566   5.1834   5.2152   5.2593
     5.2744   5.2758   5.5958   5.6052   5.6632   6.4543   6.5366   6.5490
     6.8562   6.9665   7.2407   7.2938   7.3879   7.5484   7.7434   7.8108
     7.8365   7.8800   7.9416   8.2200   8.3198   8.3778   8.5131   8.5639
     8.5785   8.6504   8.7979   8.8625   8.9081   9.0645   9.2154   9.2279
     9.2722   9.4401   9.4792   9.5927   9.8206   9.8333   9.9656   9.9909
     9.9946  10.0433  10.1632  10.1636  10.2753  10.2993  10.4298  10.6340
    10.7508  10.8609  10.9930  11.0240  11.1284  11.1597  11.3473  11.4364
    11.5121  11.5737  11.6383  14.1471  14.2404  14.2483  14.2989  14.2997
    14.3168  14.4738  14.4771  14.4913  14.5509  14.8757  14.8812  15.0247
    15.0701  15.2748  15.3660  15.8468  15.8941  16.0615  16.1138  16.3507
    16.4148  16.4419  16.4675  17.1658  17.4392  17.4423  17.5457  17.6284

          k = 0.5500 0.2021 0.0000 ( 10314 PWs)   bands (ev):

   -78.9421 -78.9409 -78.9394 -73.8049 -73.8030 -73.8017 -44.9604 -44.9591
   -44.9571 -44.8860 -44.8859 -44.8847 -44.8847 -44.8836 -44.8836 -39.9521
   -39.9508 -39.9495 -39.8989 -39.8988 -39.8968 -39.8968 -39.8955 -39.8955
   -10.4485 -10.4156 -10.4152 -10.3983 -10.3978 -10.3915 -10.3804 -10.3802
   -10.3634 -10.3502 -10.3457 -10.3451 -10.3408 -10.3405 -10.3354 -10.3219
   -10.3209 -10.3207 -10.3180 -10.3156 -10.3154 -10.3132 -10.3087 -10.3083
   -10.2992 -10.2988 -10.2962 -10.2891 -10.2891 -10.2654  -6.3861  -6.3844
    -6.3385  -6.0877  -6.0808  -5.7441  -5.6040  -5.3949  -5.3941  -5.3658
    -5.2478  -5.2429  -5.2088  -5.1219  -5.0813  -5.0135  -5.0007  -4.9922
     1.7050   1.9740   1.9767   2.2355   2.2363   2.4297   4.6295   4.8265
     4.8297   5.0090   5.0311   5.1084   5.1522   5.1852   5.2135   5.2868
     5.2984   5.3064   5.5949   5.6058   5.6582   6.4564   6.5322   6.5486
     6.8427   7.0035   7.2428   7.3078   7.3932   7.5285   7.7401   7.7982
     7.8648   7.8774   7.9852   8.1929   8.2818   8.3574   8.4948   8.6094
     8.6422   8.6439   8.7513   8.8473   8.9338   9.0741   9.1902   9.2173
     9.2813   9.4537   9.5030   9.5790   9.8122   9.8290   9.9512   9.9854
    10.0003  10.0545  10.1679  10.1739  10.2744  10.3112  10.4240  10.6261
    10.7311  10.8663  10.9778  11.0247  11.1472  11.1996  11.3181  11.4422
    11.4976  11.5561  11.6429  14.1709  14.2365  14.2526  14.3026  14.3098
    14.3301  14.4696  14.4725  14.4915  14.5524  14.8723  14.8775  15.0207
    15.0825  15.2877  15.3501  15.8124  15.8608  16.0352  16.0791  16.3185
    16.4682  16.4845  16.4944  17.1760  17.3777  17.3839  17.5289  17.6059

          k = 0.5667 0.1732 0.0000 ( 10298 PWs)   bands (ev):

   -78.9421 -78.9409 -78.9394 -73.8049 -73.8030 -73.8017 -44.9604 -44.9591
   -44.9571 -44.8860 -44.8859 -44.8847 -44.8847 -44.8836 -44.8836 -39.9521
   -39.9508 -39.9495 -39.8989 -39.8988 -39.8968 -39.8968 -39.8955 -39.8955
   -10.4458 -10.4152 -10.4148 -10.4005 -10.4001 -10.3928 -10.3790 -10.3789
   -10.3635 -10.3495 -10.3455 -10.3448 -10.3401 -10.3398 -10.3356 -10.3218
   -10.3210 -10.3207 -10.3177 -10.3154 -10.3153 -10.3128 -10.3089 -10.3085
   -10.2984 -10.2980 -10.2968 -10.2896 -10.2895 -10.2676  -6.3714  -6.3697
    -6.3219  -6.0865  -6.0781  -5.7934  -5.5961  -5.4136  -5.3813  -5.3732
    -5.2482  -5.2427  -5.2069  -5.1315  -5.0888  -5.0091  -4.9977  -4.9899
     1.7316   1.9848   1.9881   2.2131   2.2143   2.3963   4.6361   4.8101
     4.8151   5.0035   5.0330   5.1022   5.1511   5.1852   5.2111   5.3209
     5.3276   5.3431   5.5939   5.6038   5.6508   6.4600   6.5277   6.5466
     6.8396   7.0424   7.2532   7.3196   7.3947   7.5036   7.7246   7.8145
     7.8776   7.8872   8.0236   8.1546   8.2538   8.3513   8.4803   8.6264
     8.6555   8.6721   8.7314   8.8249   8.9641   9.0943   9.1648   9.2095
     9.2911   9.4674   9.5209   9.5564   9.7976   9.8171   9.9405   9.9769
    10.0116  10.0724  10.1722  10.1829  10.2764  10.3246  10.4093  10.6331
    10.7189  10.8488  10.9895  11.0210  11.1560  11.2470  11.2865  11.4311
    11.4779  11.5487  11.6426  14.2004  14.2340  14.2592  14.3095  14.3234
    14.3437  14.4639  14.4685  14.4898  14.5554  14.8669  14.8687  15.0219
    15.0928  15.2973  15.3373  15.7791  15.8139  16.0164  16.0379  16.2757
    16.5080  16.5283  16.5506  17.1899  17.3051  17.3140  17.4743  17.6124

          k = 0.5833 0.1443 0.0000 ( 10330 PWs)   bands (ev):

   -78.9421 -78.9409 -78.9394 -73.8049 -73.8030 -73.8017 -44.9604 -44.9591
   -44.9571 -44.8860 -44.8859 -44.8847 -44.8847 -44.8836 -44.8836 -39.9521
   -39.9508 -39.9495 -39.8989 -39.8989 -39.8968 -39.8968 -39.8955 -39.8955
   -10.4424 -10.4148 -10.4144 -10.4030 -10.4026 -10.3946 -10.3776 -10.3774
   -10.3637 -10.3488 -10.3452 -10.3446 -10.3394 -10.3392 -10.3358 -10.3217
   -10.3211 -10.3208 -10.3174 -10.3154 -10.3152 -10.3123 -10.3092 -10.3089
   -10.2979 -10.2973 -10.2968 -10.2903 -10.2901 -10.2704  -6.3528  -6.3510
    -6.3009  -6.0854  -6.0764  -5.8494  -5.5864  -5.4348  -5.4021  -5.3515
    -5.2479  -5.2417  -5.2042  -5.1408  -5.1003  -5.0039  -4.9951  -4.9877
     1.7651   1.9983   2.0021   2.1863   2.1880   2.3561   4.6450   4.7924
     4.7987   5.0008   5.0355   5.0949   5.1526   5.1833   5.2078   5.3589
     5.3610   5.3819   5.5915   5.5987   5.6408   6.4658   6.5232   6.5431
     6.8498   7.0794   7.2711   7.3346   7.3817   7.4832   7.6968   7.8546
     7.8830   7.9001   8.0501   8.1057   8.2371   8.3639   8.4689   8.6042
     8.6236   8.7002   8.7826   8.7984   8.9929   9.1274   9.1457   9.2063
     9.2970   9.4775   9.5279   9.5297   9.7716   9.7940   9.9379   9.9755
    10.0265  10.0942  10.1771  10.1873  10.2810  10.3364  10.3865  10.6579
    10.7151  10.8273  11.0130  11.0141  11.1540  11.2524  11.2949  11.4048
    11.4549  11.5507  11.6377  14.2301  14.2340  14.2672  14.3233  14.3386
    14.3567  14.4570  14.4654  14.4862  14.5609  14.8534  14.8580  15.0285
    15.0998  15.2818  15.3506  15.7500  15.7634  15.9952  16.0005  16.2244
    16.5379  16.5900  16.6077  17.2063  17.2277  17.2383  17.4010  17.6281

          k = 0.6000 0.1155 0.0000 ( 10344 PWs)   bands (ev):

   -78.9421 -78.9409 -78.9394 -73.8049 -73.8030 -73.8017 -44.9604 -44.9591
   -44.9571 -44.8860 -44.8859 -44.8847 -44.8847 -44.8836 -44.8836 -39.9521
   -39.9508 -39.9495 -39.8989 -39.8989 -39.8968 -39.8968 -39.8955 -39.8955
   -10.4385 -10.4142 -10.4139 -10.4056 -10.4052 -10.3968 -10.3760 -10.3759
   -10.3641 -10.3480 -10.3449 -10.3443 -10.3387 -10.3385 -10.3360 -10.3217
   -10.3211 -10.3208 -10.3171 -10.3152 -10.3150 -10.3117 -10.3095 -10.3092
   -10.2982 -10.2963 -10.2958 -10.2910 -10.2908 -10.2737  -6.3306  -6.3288
    -6.2759  -6.0852  -6.0764  -5.9104  -5.5750  -5.4562  -5.4265  -5.3301
    -5.2470  -5.2402  -5.2004  -5.1500  -5.1146  -4.9990  -4.9930  -4.9860
     1.8051   2.0141   2.0184   2.1562   2.1586   2.3105   4.6561   4.7747
     4.7815   5.0018   5.0385   5.0865   5.1561   5.1803   5.2035   5.3959
     5.3989   5.4203   5.5866   5.5903   5.6278   6.4739   6.5187   6.5386
     6.8750   7.1081   7.2955   7.3450   7.3601   7.4759   7.6666   7.8944
     7.8993   7.9041   8.0483   8.0650   8.2323   8.3874   8.4557   8.5757
     8.5859   8.7385   8.7737   8.8297   9.0178   9.1402   9.1691   9.2086
     9.2921   9.4819   9.5049   9.5273   9.7324   9.7588   9.9454   9.9837
    10.0442  10.1170  10.1838  10.1866  10.2866  10.3429  10.3597  10.6975
    10.7201  10.8148  11.0023  11.0403  11.1410  11.2174  11.3327  11.3715
    11.4365  11.5557  11.6282  14.2368  14.2525  14.2749  14.3478  14.3540
    14.3686  14.4490  14.4636  14.4810  14.5714  14.8318  14.8434  15.0400
    15.1038  15.2515  15.3813  15.7156  15.7257  15.9560  15.9853  16.1673
    16.5742  16.6509  16.6638  17.1503  17.1615  17.2172  17.3303  17.5813

          k = 0.6167 0.0866 0.0000 ( 10328 PWs)   bands (ev):

   -78.9421 -78.9409 -78.9394 -73.8049 -73.8030 -73.8017 -44.9604 -44.9591
   -44.9571 -44.8860 -44.8859 -44.8847 -44.8847 -44.8836 -44.8836 -39.9521
   -39.9508 -39.9495 -39.8989 -39.8989 -39.8968 -39.8968 -39.8955 -39.8955
   -10.4339 -10.4138 -10.4135 -10.4080 -10.4076 -10.3992 -10.3745 -10.3743
   -10.3648 -10.3470 -10.3446 -10.3441 -10.3380 -10.3379 -10.3361 -10.3217
   -10.3212 -10.3209 -10.3165 -10.3151 -10.3149 -10.3111 -10.3098 -10.3096
   -10.2983 -10.2951 -10.2947 -10.2916 -10.2914 -10.2771  -6.3049  -6.3032
    -6.2475  -6.0868  -6.0791  -5.9749  -5.5618  -5.4765  -5.4523  -5.3094
    -5.2458  -5.2391  -5.1956  -5.1589  -5.1307  -4.9947  -4.9912  -4.9849
     1.8510   2.0313   2.0363   2.1244   2.1279   2.2614   4.6695   4.7581
     4.7643   5.0069   5.0412   5.0771   5.1608   5.1772   5.1984   5.4312
     5.4377   5.4565   5.5780   5.5794   5.6118   6.4843   6.5148   6.5333
     6.9155   7.1237   7.2913   7.3254   7.3970   7.4749   7.6440   7.8831
     7.9089   7.9523   7.9886   8.0714   8.2406   8.3964   8.4351   8.5577
     8.5793   8.7297   8.7927   8.8598   9.0356   9.1537   9.2041   9.2157
     9.2807   9.4792   9.5010   9.5139   9.6847   9.7139   9.9610   9.9986
    10.0601  10.1391  10.1825  10.1922  10.2914  10.3338  10.3424  10.7344
    10.7468  10.8140  10.9884  11.0628  11.1177  11.1869  11.3367  11.3383
    11.4443  11.5591  11.6144  14.2426  14.2652  14.2807  14.3684  14.3790
    14.3796  14.4406  14.4629  14.4747  14.5905  14.8049  14.8217  15.0554
    15.1061  15.2170  15.4208  15.6741  15.7017  15.9275  15.9711  16.1077
    16.6165  16.7084  16.7165  17.0777  17.0886  17.1865  17.3059  17.5339

          k = 0.6333 0.0577 0.0000 ( 10342 PWs)   bands (ev):

   -78.9421 -78.9409 -78.9394 -73.8049 -73.8030 -73.8017 -44.9604 -44.9591
   -44.9571 -44.8860 -44.8859 -44.8847 -44.8847 -44.8836 -44.8836 -39.9521
   -39.9508 -39.9495 -39.8989 -39.8989 -39.8968 -39.8968 -39.8955 -39.8955
   -10.4290 -10.4142 -10.4139 -10.4094 -10.4091 -10.4019 -10.3729 -10.3727
   -10.3660 -10.3461 -10.3444 -10.3441 -10.3376 -10.3375 -10.3362 -10.3218
   -10.3212 -10.3210 -10.3160 -10.3150 -10.3148 -10.3108 -10.3100 -10.3099
   -10.2981 -10.2945 -10.2942 -10.2916 -10.2913 -10.2809  -6.2766  -6.2749
    -6.2173  -6.0912  -6.0854  -6.0406  -5.5472  -5.4938  -5.4769  -5.2895
    -5.2451  -5.2396  -5.1896  -5.1667  -5.1472  -4.9914  -4.9896  -4.9846
     1.9025   2.0468   2.0531   2.0947   2.1000   2.2103   4.6849   4.7432
     4.7479   5.0160   5.0431   5.0667   5.1661   5.1753   5.1923   5.4647
     5.4736   5.4886   5.5643   5.5677   5.5926   6.4960   6.5123   6.5275
     6.9698   7.1268   7.2300   7.3595   7.4302   7.4712   7.6470   7.8543
     7.8932   7.9634   7.9904   8.0682   8.2628   8.3782   8.4060   8.5774
     8.5865   8.6975   8.8330   8.8769   9.0326   9.1818   9.2033   9.2249
     9.3054   9.4666   9.4896   9.5178   9.6377   9.6645   9.9821  10.0155
    10.0668  10.1601  10.1787  10.1992  10.2950  10.3134  10.3354  10.7579
    10.7974  10.8210  10.9756  11.0665  11.0865  11.1784  11.3042  11.3130
    11.4773  11.5594  11.5962  14.2511  14.2715  14.2827  14.3814  14.3881
    14.4048  14.4356  14.4625  14.4679  14.6223  14.7750  14.7928  15.0739
    15.1083  15.1816  15.4682  15.6396  15.6714  15.9169  15.9593  16.0492
    16.6644  16.7575  16.7609  17.0168  17.0266  17.1174  17.3304  17.4884

          k = 0.6500 0.0289 0.0000 ( 10352 PWs)   bands (ev):

   -78.9421 -78.9409 -78.9394 -73.8049 -73.8030 -73.8017 -44.9604 -44.9591
   -44.9571 -44.8860 -44.8859 -44.8847 -44.8847 -44.8836 -44.8836 -39.9521
   -39.9508 -39.9495 -39.8989 -39.8989 -39.8968 -39.8968 -39.8955 -39.8955
   -10.4237 -10.4160 -10.4158 -10.4092 -10.4089 -10.4049 -10.3714 -10.3712
   -10.3677 -10.3453 -10.3444 -10.3442 -10.3371 -10.3370 -10.3364 -10.3218
   -10.3214 -10.3212 -10.3154 -10.3150 -10.3148 -10.3107 -10.3103 -10.3102
   -10.2970 -10.2948 -10.2947 -10.2903 -10.2902 -10.2848  -6.2465  -6.2449
    -6.1936  -6.0998  -6.0981  -6.0953  -5.5313  -5.5068  -5.4982  -5.2702
    -5.2463  -5.2434  -5.1825  -5.1721  -5.1625  -4.9890  -4.9883  -4.9854
     1.9588   2.0438   2.0471   2.0895   2.0925   2.1590   4.7021   4.7305
     4.7333   5.0282   5.0436   5.0553   5.1716   5.1753   5.1852   5.4946
     5.5035   5.5139   5.5496   5.5546   5.5707   6.5068   6.5121   6.5213
     7.0351   7.1205   7.1672   7.3965   7.4406   7.4590   7.6943   7.8176
     7.8348   7.9884   8.0131   8.0513   8.2978   8.3553   8.3726   8.6037
     8.6069   8.6624   8.8756   8.8936   8.9900   9.2038   9.2106   9.2304
     9.3569   9.4423   9.4550   9.5476   9.6024   9.6183  10.0069  10.0287
    10.0584  10.1780  10.1799  10.1998  10.2992  10.3034  10.3232  10.7892
    10.8278  10.8311  10.9787  11.0441  11.0515  11.2038  11.2744  11.2802
    11.5147  11.5560  11.5743  14.2616  14.2738  14.2802  14.3922  14.3953
    14.4079  14.4443  14.4605  14.4619  14.6674  14.7459  14.7584  15.0946
    15.1117  15.1475  15.5238  15.6113  15.6323  15.9266  15.9523  15.9960
    16.7171  16.7846  16.7853  16.9820  16.9885  17.0480  17.3700  17.4468

          k = 0.6667 0.0000 0.0000 ( 10380 PWs)   bands (ev):

   -78.9421 -78.9409 -78.9394 -73.8049 -73.8030 -73.8017 -44.9604 -44.9591
   -44.9571 -44.8860 -44.8860 -44.8848 -44.8847 -44.8836 -44.8836 -39.9521
   -39.9508 -39.9495 -39.8989 -39.8989 -39.8968 -39.8968 -39.8955 -39.8955
   -10.4186 -10.4184 -10.4182 -10.4080 -10.4080 -10.4077 -10.3701 -10.3700
   -10.3698 -10.3445 -10.3445 -10.3445 -10.3369 -10.3369 -10.3367 -10.3217
   -10.3215 -10.3215 -10.3151 -10.3150 -10.3149 -10.3105 -10.3105 -10.3105
   -10.2957 -10.2957 -10.2955 -10.2886 -10.2886 -10.2885  -6.2181  -6.2162
    -6.2154  -6.1100  -6.1091  -6.1065  -5.5156  -5.5137  -5.5136  -5.2521
    -5.2515  -5.2510  -5.1753  -5.1734  -5.1733  -4.9877  -4.9873  -4.9868
     2.0181   2.0181   2.0186   2.1092   2.1099   2.1105   4.7196   4.7209
     4.7220   5.0421   5.0425   5.0431   5.1765   5.1774   5.1779   5.5163
     5.5172   5.5186   5.5486   5.5487   5.5494   6.5124   6.5143   6.5159
     7.1067   7.1072   7.1075   7.4340   7.4349   7.4357   7.7770   7.7773
     7.7774   8.0206   8.0213   8.0220   8.3391   8.3398   8.3409   8.6254
     8.6262   8.6272   8.9189   8.9192   8.9206   9.2219   9.2220   9.2224
     9.4149   9.4150   9.4159   9.5835   9.5838   9.5840  10.0342  10.0346
    10.0347  10.1878  10.1886  10.1893  10.3065  10.3067  10.3067  10.8236
    10.8249  10.8258  11.0168  11.0175  11.0179  11.2481  11.2488  11.2504
    11.5484  11.5500  11.5504  14.2722  14.2734  14.2735  14.3996  14.4001
    14.4001  14.4553  14.4566  14.4574  14.7214  14.7216  14.7223  15.1159
    15.1167  15.1175  15.5865  15.5880  15.5882  15.9524  15.9524  15.9528
    16.7725  16.7740  16.7742  16.9900  16.9904  16.9907  17.4165  17.4170

          k = 0.6000 0.0000 0.0000 ( 10348 PWs)   bands (ev):

   -78.9421 -78.9409 -78.9394 -73.8049 -73.8030 -73.8017 -44.9604 -44.9591
   -44.9571 -44.8860 -44.8859 -44.8847 -44.8847 -44.8836 -44.8836 -39.9521
   -39.9508 -39.9495 -39.8989 -39.8989 -39.8968 -39.8968 -39.8955 -39.8955
   -10.4235 -10.4233 -10.4159 -10.4061 -10.4044 -10.4043 -10.3763 -10.3679
   -10.3676 -10.3460 -10.3456 -10.3438 -10.3385 -10.3363 -10.3362 -10.3220
   -10.3218 -10.3202 -10.3155 -10.3155 -10.3150 -10.3107 -10.3107 -10.3086
   -10.2974 -10.2972 -10.2952 -10.2912 -10.2848 -10.2847  -6.3527  -6.2050
    -6.2003  -6.1004  -6.0983  -6.0316  -5.5258  -5.5116  -5.4782  -5.2790
    -5.2786  -5.2157  -5.1796  -5.1694  -5.1540  -4.9938  -4.9860  -4.9852
     1.9601   1.9618   2.0077   2.1601   2.1612   2.1620   4.7058   4.7104
     4.7612   5.0133   5.0379   5.0724   5.1590   5.1842   5.1877   5.4755
     5.4811   5.4844   5.5643   5.5725   5.5737   6.4964   6.4994   6.5260
     7.0086   7.0667   7.2468   7.3498   7.4303   7.5096   7.6984   7.7001
     7.9497   7.9525   8.0443   8.0549   8.2994   8.3176   8.4059   8.5662
     8.6321   8.6511   8.8065   8.9815   8.9861   9.1453   9.1696   9.2593
     9.3685   9.4046   9.5340   9.5601   9.5816   9.6627   9.9612  10.0247
    10.0909  10.1327  10.1835  10.2164  10.2638  10.3240  10.3381  10.7472
    10.7588  10.8842  10.9678  11.0091  11.1417  11.2090  11.2268  11.3555
    11.5070  11.5340  11.6047  14.2487  14.2638  14.2931  14.3824  14.3987
    14.4036  14.4382  14.4526  14.4702  14.6593  14.6985  14.8334  15.0744
    15.1303  15.1620  15.5013  15.5492  15.7282  15.9225  15.9824  16.0337
    16.6880  16.6891  16.8692  16.9538  17.0684  17.0811  17.3939  17.3964

          k = 0.5333 0.0000 0.0000 ( 10332 PWs)   bands (ev):

   -78.9421 -78.9409 -78.9394 -73.8049 -73.8030 -73.8017 -44.9604 -44.9591
   -44.9571 -44.8860 -44.8859 -44.8847 -44.8847 -44.8836 -44.8836 -39.9521
   -39.9508 -39.9495 -39.8989 -39.8989 -39.8968 -39.8968 -39.8955 -39.8955
   -10.4279 -10.4276 -10.4226 -10.4002 -10.4000 -10.3967 -10.3844 -10.3670
   -10.3663 -10.3488 -10.3480 -10.3452 -10.3409 -10.3357 -10.3354 -10.3224
   -10.3221 -10.3185 -10.3165 -10.3163 -10.3149 -10.3109 -10.3108 -10.3048
   -10.2999 -10.2985 -10.2984 -10.2861 -10.2810 -10.2809  -6.4988  -6.2696
    -6.2615  -6.0324  -6.0275  -5.9344  -5.5099  -5.4887  -5.4412  -5.3177
    -5.3117  -5.1814  -5.1696  -5.1597  -5.1308  -5.0032  -4.9863  -4.9832
     1.9130   1.9148   1.9275   2.2192   2.2196   2.3123   4.7067   4.7140
     4.8032   4.9792   5.0346   5.0943   5.1376   5.1854   5.1960   5.4154
     5.4248   5.4384   5.5784   5.5800   5.5814   6.4257   6.4707   6.5418
     6.9377   7.0287   7.2501   7.3248   7.4549   7.5543   7.6645   7.6680
     7.9229   7.9324   7.9817   8.2170   8.2812   8.2873   8.3986   8.5642
     8.6079   8.6374   8.8413   8.8832   8.9747   9.1476   9.1681   9.2380
     9.3680   9.4199   9.5788   9.6073   9.6107   9.7555   9.9083   9.9992
    10.0282  10.1552  10.1665  10.1885  10.2503  10.3223  10.3595  10.6449
    10.6746  10.8787  10.9663  11.0521  11.1700  11.2644  11.2850  11.3891
    11.5330  11.5553  11.6374  14.2202  14.2511  14.3014  14.3663  14.3868
    14.3914  14.4184  14.4481  14.4732  14.6412  14.7033  14.9160  15.0757
    15.1461  15.2020  15.4426  15.5263  15.8263  16.0458  16.0536  16.1361
    16.5983  16.6004  16.8930  17.0802  17.1671  17.1861  17.4245  17.4269

          k = 0.4667 0.0000 0.0000 ( 10335 PWs)   bands (ev):

   -78.9421 -78.9409 -78.9394 -73.8049 -73.8030 -73.8017 -44.9604 -44.9591
   -44.9571 -44.8860 -44.8859 -44.8847 -44.8847 -44.8836 -44.8836 -39.9521
   -39.9508 -39.9495 -39.8989 -39.8989 -39.8968 -39.8968 -39.8955 -39.8955
   -10.4313 -10.4309 -10.4293 -10.3985 -10.3952 -10.3951 -10.3856 -10.3677
   -10.3665 -10.3527 -10.3516 -10.3486 -10.3434 -10.3350 -10.3344 -10.3232
   -10.3230 -10.3178 -10.3176 -10.3171 -10.3129 -10.3106 -10.3104 -10.3031
   -10.2992 -10.2990 -10.2980 -10.2807 -10.2778 -10.2777  -6.6398  -6.3547
    -6.3468  -5.9558  -5.9477  -5.8308  -5.4746  -5.4556  -5.4055  -5.3506
    -5.3409  -5.1541  -5.1503  -5.1485  -5.1065  -5.0127  -4.9875  -4.9808
     1.8649   1.8803   1.8817   2.2831   2.2833   2.4789   4.7249   4.7332
     4.8398   4.9458   5.0365   5.0996   5.1125   5.1695   5.1976   5.3475
     5.3750   5.3942   5.5621   5.5692   5.5740   6.3055   6.4341   6.5516
     6.8649   7.0170   7.1800   7.3199   7.4885   7.5210   7.6386   7.7059
     7.8304   7.8813   7.9410   8.1984   8.2434   8.2455   8.4403   8.5430
     8.6077   8.7205   8.7699   8.9310   8.9652   9.1169   9.1566   9.2324
     9.3780   9.4350   9.6201   9.6293   9.6590   9.8349   9.9276   9.9478
     9.9644  10.1249  10.1565  10.1678  10.2395  10.3111  10.3469  10.5364
    10.6590  10.8176  11.0194  11.1130  11.1641  11.3250  11.3705  11.3757
    11.5708  11.6492  11.6698  14.1975  14.2431  14.2944  14.3479  14.3717
    14.3806  14.3997  14.4327  14.4660  14.6771  14.7213  14.9629  15.1233
    15.1606  15.2286  15.4298  15.5326  15.9274  16.1477  16.2425  16.2795
    16.5389  16.5467  16.9641  17.2508  17.2621  17.2817  17.4574  17.4688

          k = 0.4000 0.0000 0.0000 ( 10339 PWs)   bands (ev):

   -78.9421 -78.9409 -78.9394 -73.8049 -73.8030 -73.8017 -44.9604 -44.9591
   -44.9571 -44.8860 -44.8859 -44.8847 -44.8847 -44.8836 -44.8836 -39.9521
   -39.9508 -39.9495 -39.8989 -39.8989 -39.8968 -39.8968 -39.8955 -39.8955
   -10.4362 -10.4330 -10.4328 -10.4098 -10.3900 -10.3898 -10.3817 -10.3706
   -10.3694 -10.3561 -10.3552 -10.3524 -10.3466 -10.3343 -10.3336 -10.3248
   -10.3246 -10.3185 -10.3185 -10.3153 -10.3103 -10.3091 -10.3090 -10.3030
   -10.2995 -10.2993 -10.2912 -10.2760 -10.2756 -10.2749  -6.7703  -6.4439
    -6.4375  -5.8859  -5.8752  -5.7257  -5.4354  -5.4306  -5.3730  -5.3571
    -5.3525  -5.1418  -5.1370  -5.1235  -5.0821  -5.0169  -4.9887  -4.9780
     1.8228   1.8624   1.8632   2.3516   2.3522   2.6580   4.7600   4.7681
     4.8481   4.9333   5.0445   5.0826   5.0840   5.1331   5.1865   5.2863
     5.3348   5.3515   5.5300   5.5416   5.5445   6.1645   6.3940   6.5470
     6.7895   7.0381   7.1329   7.2795   7.4731   7.4939   7.5510   7.6900
     7.6986   7.8404   7.9392   8.0579   8.1962   8.2328   8.3453   8.4933
     8.6885   8.8127   8.8231   8.9357   9.0079   9.0617   9.1422   9.2619
     9.3678   9.4502   9.6003   9.7056   9.7066   9.8639   9.9031   9.9330
    10.0366  10.0760  10.0799  10.1978  10.2027  10.3147  10.3355  10.4702
    10.6882  10.7572  11.0988  11.1642  11.1717  11.3737  11.3791  11.4175
    11.6398  11.6433  11.7655  14.1830  14.2419  14.2745  14.3265  14.3537
    14.3673  14.3974  14.4134  14.4474  14.7423  14.7493  15.0111  15.1707
    15.1829  15.2402  15.4726  15.5764  16.0917  16.2091  16.2927  16.5414
    16.5780  16.5826  17.0989  17.3432  17.3638  17.4430  17.4454  17.4487

          k = 0.3333 0.0000 0.0000 ( 10339 PWs)   bands (ev):

   -78.9421 -78.9409 -78.9394 -73.8049 -73.8030 -73.8017 -44.9604 -44.9591
   -44.9571 -44.8860 -44.8859 -44.8847 -44.8847 -44.8836 -44.8836 -39.9521
   -39.9508 -39.9495 -39.8989 -39.8989 -39.8968 -39.8968 -39.8955 -39.8955
   -10.4421 -10.4336 -10.4334 -10.4219 -10.3848 -10.3845 -10.3802 -10.3759
   -10.3752 -10.3581 -10.3578 -10.3560 -10.3506 -10.3350 -10.3344 -10.3262
   -10.3261 -10.3186 -10.3184 -10.3118 -10.3074 -10.3067 -10.3065 -10.3020
   -10.3000 -10.2999 -10.2836 -10.2744 -10.2744 -10.2705  -6.8864  -6.5292
    -6.5244  -5.8320  -5.8210  -5.6237  -5.4202  -5.4120  -5.3450  -5.3280
    -5.3276  -5.1350  -5.1208  -5.1166  -5.0540  -5.0098  -4.9894  -4.9756
     1.8005   1.8577   1.8583   2.4233   2.4242   2.8462   4.8096   4.8168
     4.8202   4.9330   5.0463   5.0543   5.0633   5.0864   5.1648   5.2400
     5.3019   5.3037   5.4924   5.4940   5.5036   6.0217   6.3636   6.5256
     6.7350   7.0788   7.0807   7.2324   7.3765   7.4272   7.4472   7.6157
     7.6197   7.7612   7.8937   7.9486   8.1300   8.2139   8.2284   8.5396
     8.6241   8.7292   8.9072   9.0064   9.0199   9.1546   9.1864   9.2454
     9.3605   9.4746   9.6157   9.7057   9.7414   9.8308   9.9634   9.9826
    10.0279  10.0379  10.1060  10.1672  10.2397  10.3058  10.3684  10.4721
    10.7296  10.7325  11.1633  11.1850  11.2228  11.4099  11.4142  11.4159
    11.6161  11.7034  11.8203  14.1730  14.2449  14.2456  14.3045  14.3359
    14.3413  14.3980  14.4072  14.4185  14.7935  14.8166  15.0783  15.1779
    15.2381  15.2421  15.5628  15.6507  16.2047  16.2652  16.3144  16.7319
    16.7364  16.7927  17.2949  17.3669  17.3785  17.4554  17.4570  17.6495

          k = 0.2667 0.0000 0.0000 ( 10343 PWs)   bands (ev):

   -78.9421 -78.9409 -78.9394 -73.8049 -73.8030 -73.8017 -44.9604 -44.9591
   -44.9571 -44.8860 -44.8859 -44.8847 -44.8847 -44.8836 -44.8836 -39.9521
   -39.9508 -39.9494 -39.8989 -39.8989 -39.8968 -39.8968 -39.8955 -39.8955
   -10.4472 -10.4335 -10.4327 -10.4323 -10.3841 -10.3839 -10.3806 -10.3786
   -10.3784 -10.3595 -10.3593 -10.3589 -10.3550 -10.3380 -10.3377 -10.3258
   -10.3257 -10.3178 -10.3175 -10.3078 -10.3048 -10.3037 -10.3032 -10.3011
   -10.3008 -10.3004 -10.2760 -10.2744 -10.2743 -10.2663  -6.9852  -6.6053
    -6.6016  -5.7997  -5.7916  -5.5288  -5.3998  -5.3924  -5.3218  -5.2887
    -5.2832  -5.1285  -5.1273  -5.1065  -5.0225  -4.9939  -4.9892  -4.9750
     1.7949   1.8632   1.8638   2.4954   2.4966   3.0371   4.7859   4.8677
     4.8711   4.8924   4.9981   5.0373   5.0644   5.0813   5.1356   5.2094
     5.2475   5.2747   5.4253   5.4609   5.4636   5.8897   6.3528   6.4917
     6.7128   7.0004   7.1166   7.1771   7.1964   7.3749   7.3777   7.5067
     7.5651   7.5844   7.8478   7.9235   8.0237   8.1595   8.1935   8.3779
     8.6369   8.7663   8.8935   8.9146   9.1484   9.2136   9.2326   9.2883
     9.3485   9.4932   9.6615   9.7218   9.7430   9.7920   9.9288  10.0593
    10.0684  10.0984  10.1605  10.1662  10.2886  10.2930  10.4330  10.5538
    10.7527  10.7767  11.1535  11.2655  11.2732  11.3668  11.4473  11.4577
    11.5575  11.7359  11.8255  14.1630  14.2098  14.2488  14.2852  14.3177
    14.3198  14.3833  14.3880  14.4070  14.8567  14.8905  15.1607  15.1857
    15.2381  15.2873  15.6741  15.7366  16.1800  16.2237  16.5760  16.9290
    16.9333  17.0097  17.3586  17.3596  17.5020  17.5073  17.5365  17.8551

          k = 0.2000 0.0000 0.0000 ( 10365 PWs)   bands (ev):

   -78.9421 -78.9409 -78.9394 -73.8049 -73.8030 -73.8017 -44.9604 -44.9591
   -44.9571 -44.8860 -44.8859 -44.8847 -44.8847 -44.8836 -44.8836 -39.9521
   -39.9508 -39.9495 -39.8989 -39.8989 -39.8968 -39.8968 -39.8955 -39.8955
   -10.4513 -10.4432 -10.4304 -10.4303 -10.3920 -10.3918 -10.3818 -10.3740
   -10.3737 -10.3615 -10.3608 -10.3603 -10.3591 -10.3427 -10.3424 -10.3240
   -10.3239 -10.3166 -10.3163 -10.3042 -10.3032 -10.3028 -10.3021 -10.2994
   -10.2992 -10.2990 -10.2757 -10.2756 -10.2688 -10.2630  -7.0642  -6.6681
    -6.6649  -5.7873  -5.7829  -5.4441  -5.3657  -5.3629  -5.3037  -5.2545
    -5.2454  -5.1500  -5.1142  -5.0944  -4.9930  -4.9886  -4.9778  -4.9757
[...]

          k = 0.6000 0.0000 0.0000 ( 10348 PWs)   bands (ev):

   -78.9438 -78.9417 -78.9405 -73.8034 -73.8021 -73.8005 -44.9614 -44.9600
   -44.9587 -44.8879 -44.8879 -44.8856 -44.8856 -44.8844 -44.8844 -39.9513
   -39.9498 -39.9478 -39.8972 -39.8972 -39.8958 -39.8958 -39.8946 -39.8946
   -10.4235 -10.4233 -10.4159 -10.4061 -10.4044 -10.4043 -10.3763 -10.3679
   -10.3676 -10.3460 -10.3455 -10.3438 -10.3386 -10.3364 -10.3362 -10.3220
   -10.3218 -10.3202 -10.3156 -10.3154 -10.3150 -10.3108 -10.3107 -10.3086
   -10.2973 -10.2972 -10.2952 -10.2912 -10.2848 -10.2847  -6.3527  -6.2051
    -6.2001  -6.1002  -6.0984  -6.0316  -5.5258  -5.5116  -5.4782  -5.2790
    -5.2786  -5.2157  -5.1796  -5.1694  -5.1540  -4.9938  -4.9860  -4.9851
     1.9601   1.9618   2.0077   2.1603   2.1611   2.1618   4.7053   4.7099
     4.7607   5.0126   5.0372   5.0717   5.1583   5.1834   5.1870   5.4747
     5.4803   5.4835   5.5634   5.5717   5.5729   6.4968   6.4991   6.5259
     7.0085   7.0667   7.2467   7.3497   7.4302   7.5095   7.6983   7.7001
     7.9496   7.9524   8.0443   8.0548   8.2994   8.3175   8.4058   8.5662
     8.6321   8.6511   8.8065   8.9815   8.9859   9.1453   9.1697   9.2593
     9.3686   9.4046   9.5340   9.5601   9.5815   9.6627   9.9611  10.0247
    10.0909  10.1326  10.1835  10.2164  10.2637  10.3239  10.3381  10.7471
    10.7587  10.8840  10.9676  11.0090  11.1416  11.2089  11.2268  11.3554
    11.5069  11.5339  11.6046  14.2495  14.2646  14.2939  14.3833  14.3995
    14.4045  14.4390  14.4534  14.4710  14.6599  14.6991  14.8341  15.0751
    15.1310  15.1628  15.5016  15.5495  15.7284  15.9226  15.9825  16.0338
    16.6880  16.6892  16.8692  16.9538  17.0685  17.0811  17.3939  17.3964

          k = 0.5333 0.0000 0.0000 ( 10332 PWs)   bands (ev):

   -78.9438 -78.9417 -78.9405 -73.8034 -73.8021 -73.8005 -44.9614 -44.9600
   -44.9587 -44.8879 -44.8879 -44.8856 -44.8856 -44.8844 -44.8844 -39.9513
   -39.9498 -39.9478 -39.8972 -39.8972 -39.8958 -39.8958 -39.8946 -39.8946
   -10.4279 -10.4276 -10.4226 -10.4002 -10.4000 -10.3967 -10.3844 -10.3670
   -10.3663 -10.3488 -10.3480 -10.3452 -10.3409 -10.3358 -10.3354 -10.3224
   -10.3221 -10.3185 -10.3165 -10.3163 -10.3149 -10.3109 -10.3107 -10.3048
   -10.2999 -10.2985 -10.2984 -10.2861 -10.2810 -10.2809  -6.4988  -6.2696
    -6.2615  -6.0324  -6.0275  -5.9344  -5.5099  -5.4887  -5.4411  -5.3177
    -5.3117  -5.1814  -5.1696  -5.1597  -5.1308  -5.0032  -4.9863  -4.9832
     1.9130   1.9147   1.9275   2.2192   2.2195   2.3123   4.7062   4.7135
     4.8026   4.9786   5.0339   5.0936   5.1369   5.1847   5.1952   5.4146
     5.4240   5.4376   5.5776   5.5793   5.5804   6.4257   6.4707   6.5417
     6.9376   7.0286   7.2500   7.3247   7.4548   7.5542   7.6644   7.6678
     7.9229   7.9324   7.9817   8.2169   8.2813   8.2871   8.3986   8.5642
     8.6078   8.6374   8.8413   8.8831   8.9747   9.1476   9.1681   9.2380
     9.3680   9.4199   9.5788   9.6073   9.6107   9.7555   9.9083   9.9992
    10.0281  10.1551  10.1664  10.1884  10.2503  10.3223  10.3595  10.6447
    10.6745  10.8785  10.9661  11.0520  11.1700  11.2644  11.2848  11.3889
    11.5328  11.5553  11.6372  14.2210  14.2518  14.3023  14.3672  14.3876
    14.3922  14.4191  14.4489  14.4741  14.6419  14.7039  14.9167  15.0764
    15.1468  15.2027  15.4428  15.5265  15.8264  16.0458  16.0536  16.1362
    16.5984  16.6004  16.8930  17.0802  17.1671  17.1862  17.4246  17.4269

          k = 0.4667 0.0000 0.0000 ( 10335 PWs)   bands (ev):

   -78.9438 -78.9417 -78.9405 -73.8034 -73.8021 -73.8005 -44.9614 -44.9600
   -44.9587 -44.8879 -44.8879 -44.8856 -44.8856 -44.8844 -44.8844 -39.9513
   -39.9498 -39.9478 -39.8972 -39.8972 -39.8958 -39.8958 -39.8946 -39.8946
   -10.4313 -10.4309 -10.4293 -10.3985 -10.3952 -10.3951 -10.3856 -10.3677
   -10.3666 -10.3527 -10.3517 -10.3486 -10.3434 -10.3350 -10.3344 -10.3232
   -10.3230 -10.3178 -10.3176 -10.3171 -10.3129 -10.3106 -10.3104 -10.3031
   -10.2991 -10.2990 -10.2980 -10.2807 -10.2779 -10.2777  -6.6398  -6.3547
    -6.3467  -5.9558  -5.9477  -5.8308  -5.4746  -5.4556  -5.4055  -5.3506
    -5.3409  -5.1541  -5.1503  -5.1486  -5.1065  -5.0127  -4.9875  -4.9808
     1.8649   1.8803   1.8816   2.2831   2.2833   2.4788   4.7243   4.7326
     4.8392   4.9451   5.0359   5.0989   5.1118   5.1687   5.1969   5.3468
     5.3742   5.3934   5.5613   5.5684   5.5731   6.3054   6.4341   6.5516
     6.8648   7.0170   7.1800   7.3199   7.4885   7.5209   7.6385   7.7057
     7.8303   7.8813   7.9409   8.1983   8.2440   8.2448   8.4403   8.5430
     8.6076   8.7205   8.7698   8.9310   8.9651   9.1169   9.1566   9.2324
     9.3780   9.4350   9.6201   9.6292   9.6590   9.8349   9.9276   9.9478
     9.9643  10.1248  10.1564  10.1677  10.2395  10.3111  10.3469  10.5362
    10.6589  10.8175  11.0193  11.1130  11.1641  11.3249  11.3704  11.3755
    11.5707  11.6491  11.6697  14.1983  14.2439  14.2953  14.3488  14.3725
    14.3815  14.4004  14.4335  14.4669  14.6778  14.7220  14.9636  15.1240
    15.1614  15.2294  15.4299  15.5328  15.9275  16.1478  16.2426  16.2795
    16.5389  16.5467  16.9641  17.2508  17.2622  17.2817  17.4574  17.4688

          k = 0.4000 0.0000 0.0000 ( 10339 PWs)   bands (ev):

   -78.9439 -78.9417 -78.9405 -73.8034 -73.8021 -73.8005 -44.9614 -44.9600
   -44.9587 -44.8879 -44.8879 -44.8856 -44.8856 -44.8844 -44.8844 -39.9513
   -39.9498 -39.9478 -39.8972 -39.8972 -39.8958 -39.8958 -39.8946 -39.8946
   -10.4362 -10.4330 -10.4328 -10.4098 -10.3900 -10.3898 -10.3817 -10.3706
   -10.3694 -10.3561 -10.3552 -10.3524 -10.3466 -10.3343 -10.3336 -10.3248
   -10.3246 -10.3186 -10.3184 -10.3153 -10.3103 -10.3091 -10.3090 -10.3030
   -10.2995 -10.2994 -10.2912 -10.2760 -10.2756 -10.2749  -6.7703  -6.4439
    -6.4374  -5.8859  -5.8752  -5.7257  -5.4354  -5.4306  -5.3731  -5.3570
    -5.3525  -5.1418  -5.1370  -5.1235  -5.0821  -5.0169  -4.9887  -4.9780
     1.8228   1.8624   1.8632   2.3516   2.3521   2.6580   4.7595   4.7676
     4.8475   4.9327   5.0438   5.0819   5.0833   5.1324   5.1858   5.2856
     5.3340   5.3507   5.5292   5.5409   5.5435   6.1644   6.3939   6.5469
     6.7895   7.0381   7.1329   7.2794   7.4731   7.4938   7.5509   7.6899
     7.6985   7.8404   7.9391   8.0578   8.1962   8.2328   8.3453   8.4932
     8.6884   8.8127   8.8230   8.9357   9.0079   9.0617   9.1423   9.2619
     9.3678   9.4502   9.6003   9.7055   9.7066   9.8640   9.9031   9.9329
    10.0366  10.0759  10.0798  10.1977  10.2027  10.3147  10.3355  10.4700
    10.6882  10.7571  11.0987  11.1641  11.1717  11.3736  11.3789  11.4173
    11.6396  11.6433  11.7655  14.1838  14.2427  14.2753  14.3274  14.3545
    14.3681  14.3982  14.4142  14.4482  14.7430  14.7500  15.0119  15.1714
    15.1837  15.2409  15.4727  15.5766  16.0917  16.2092  16.2928  16.5414
    16.5781  16.5827  17.0990  17.3432  17.3638  17.4430  17.4455  17.4487

          k = 0.3333 0.0000 0.0000 ( 10339 PWs)   bands (ev):

   -78.9439 -78.9417 -78.9405 -73.8034 -73.8021 -73.8005 -44.9614 -44.9600
   -44.9587 -44.8879 -44.8879 -44.8856 -44.8856 -44.8844 -44.8844 -39.9513
   -39.9498 -39.9478 -39.8972 -39.8972 -39.8958 -39.8958 -39.8946 -39.8946
   -10.4421 -10.4336 -10.4334 -10.4219 -10.3848 -10.3845 -10.3802 -10.3759
   -10.3752 -10.3581 -10.3578 -10.3560 -10.3506 -10.3350 -10.3344 -10.3262
   -10.3261 -10.3186 -10.3184 -10.3118 -10.3075 -10.3067 -10.3065 -10.3020
   -10.3000 -10.2999 -10.2836 -10.2744 -10.2744 -10.2705  -6.8864  -6.5293
    -6.5244  -5.8319  -5.8210  -5.6237  -5.4202  -5.4120  -5.3450  -5.3278
    -5.3277  -5.1350  -5.1207  -5.1167  -5.0540  -5.0098  -4.9894  -4.9756
     1.8004   1.8577   1.8582   2.4233   2.4242   2.8461   4.8091   4.8163
     4.8196   4.9324   5.0457   5.0536   5.0627   5.0858   5.1641   5.2393
     5.3011   5.3029   5.4918   5.4931   5.5028   6.0216   6.3636   6.5255
     6.7349   7.0787   7.0806   7.2323   7.3764   7.4272   7.4471   7.6155
     7.6196   7.7611   7.8936   7.9485   8.1299   8.2139   8.2284   8.5395
     8.6241   8.7292   8.9071   9.0063   9.0198   9.1547   9.1865   9.2454
     9.3605   9.4746   9.6157   9.7056   9.7414   9.8308   9.9633   9.9826
    10.0279  10.0378  10.1060  10.1671  10.2397  10.3058  10.3684  10.4720
    10.7298  10.7321  11.1633  11.1849  11.2227  11.4098  11.4143  11.4155
    11.6160  11.7033  11.8202  14.1739  14.2457  14.2465  14.3054  14.3367
    14.3421  14.3988  14.4080  14.4193  14.7942  14.8174  15.0791  15.1786
    15.2388  15.2429  15.5629  15.6509  16.2047  16.2653  16.3145  16.7320
    16.7364  16.7928  17.2949  17.3669  17.3785  17.4554  17.4570  17.6495

          k = 0.2667 0.0000 0.0000 ( 10343 PWs)   bands (ev):

   -78.9439 -78.9417 -78.9405 -73.8034 -73.8021 -73.8005 -44.9614 -44.9600
   -44.9587 -44.8879 -44.8879 -44.8856 -44.8856 -44.8844 -44.8844 -39.9513
   -39.9498 -39.9478 -39.8972 -39.8972 -39.8958 -39.8958 -39.8946 -39.8946
   -10.4472 -10.4335 -10.4327 -10.4323 -10.3841 -10.3839 -10.3806 -10.3786
   -10.3784 -10.3595 -10.3593 -10.3589 -10.3550 -10.3381 -10.3377 -10.3258
   -10.3257 -10.3178 -10.3175 -10.3078 -10.3048 -10.3037 -10.3032 -10.3011
   -10.3008 -10.3004 -10.2760 -10.2744 -10.2743 -10.2663  -6.9852  -6.6053
    -6.6015  -5.7997  -5.7916  -5.5288  -5.3998  -5.3924  -5.3219  -5.2887
    -5.2832  -5.1284  -5.1273  -5.1065  -5.0225  -4.9938  -4.9892  -4.9750
     1.7949   1.8632   1.8638   2.4955   2.4965   3.0370   4.7853   4.8670
     4.8705   4.8918   4.9974   5.0366   5.0638   5.0807   5.1349   5.2087
     5.2468   5.2739   5.4246   5.4603   5.4627   5.8896   6.3528   6.4916
     6.7128   7.0003   7.1166   7.1770   7.1963   7.3749   7.3775   7.5066
     7.5648   7.5842   7.8477   7.9234   8.0236   8.1594   8.1935   8.3779
     8.6369   8.7663   8.8934   8.9146   9.1484   9.2137   9.2326   9.2883
     9.3485   9.4932   9.6615   9.7218   9.7430   9.7920   9.9287  10.0593
    10.0684  10.0984  10.1605  10.1662  10.2885  10.2930  10.4330  10.5537
    10.7526  10.7767  11.1534  11.2655  11.2730  11.3667  11.4472  11.4575
    11.5574  11.7358  11.8254  14.1638  14.2107  14.2496  14.2861  14.3184
    14.3206  14.3842  14.3887  14.4078  14.8574  14.8913  15.1615  15.1864
    15.2389  15.2880  15.6741  15.7368  16.1801  16.2238  16.5761  16.9290
    16.9333  17.0097  17.3586  17.3596  17.5020  17.5073  17.5365  17.8552

          k = 0.2000 0.0000 0.0000 ( 10365 PWs)   bands (ev):

   -78.9439 -78.9417 -78.9405 -73.8034 -73.8021 -73.8005 -44.9614 -44.9600
   -44.9587 -44.8879 -44.8879 -44.8856 -44.8856 -44.8844 -44.8844 -39.9513
   -39.9498 -39.9478 -39.8972 -39.8972 -39.8958 -39.8958 -39.8946 -39.8946
   -10.4513 -10.4432 -10.4304 -10.4303 -10.3920 -10.3918 -10.3818 -10.3740
   -10.3737 -10.3615 -10.3608 -10.3603 -10.3591 -10.3427 -10.3424 -10.3240
   -10.3239 -10.3166 -10.3163 -10.3042 -10.3032 -10.3028 -10.3021 -10.2994
   -10.2992 -10.2990 -10.2757 -10.2756 -10.2688 -10.2630  -7.0642  -6.6682
    -6.6648  -5.7873  -5.7829  -5.4441  -5.3657  -5.3629  -5.3037  -5.2545
    -5.2454  -5.1500  -5.1142  -5.0943  -4.9930  -4.9886  -4.9776  -4.9760
     1.8012   1.8747   1.8754   2.5632   2.5644   3.2201   4.7558   4.8281
     4.9030   4.9131   4.9597   5.0134   5.0556   5.1019   5.1169   5.1893
     5.2139   5.2502   5.3509   5.4267   5.4310   5.7773   6.3624   6.4536
     6.7213   6.9038   7.0351   7.0940   7.1043   7.2788   7.3296   7.4248
     7.4532   7.5403   7.8164   7.8836   7.8867   8.1482   8.1519   8.1828
     8.6944   8.7238   8.8415   8.8965   9.2338   9.2628   9.2716   9.3369
     9.3490   9.4590   9.5779   9.7208   9.8295   9.8512   9.9061  10.1147
    10.1339  10.1676  10.2012  10.2211  10.2966  10.3713  10.5002  10.7055
    10.8177  10.8276  11.1290  11.3026  11.3237  11.3320  11.4612  11.4688
    11.4883  11.7264  11.7809  14.1505  14.1735  14.2527  14.2718  14.3038
    14.3091  14.3479  14.3806  14.3962  14.9321  14.9601  15.1951  15.2305
    15.2473  15.3301  15.7731  15.8083  16.1659  16.1928  16.8550  17.0995
    17.1006  17.1902  17.4163  17.4196  17.5285  17.5338  17.7770  17.9542

          k = 0.1333 0.0000 0.0000 ( 10355 PWs)   bands (ev):

   -78.9439 -78.9417 -78.9405 -73.8034 -73.8021 -73.8005 -44.9614 -44.9600
   -44.9587 -44.8879 -44.8879 -44.8856 -44.8856 -44.8844 -44.8844 -39.9513
   -39.9498 -39.9478 -39.8972 -39.8972 -39.8958 -39.8958 -39.8946 -39.8946
   -10.4542 -10.4506 -10.4266 -10.4265 -10.4002 -10.4001 -10.3831 -10.3690
   -10.3687 -10.3633 -10.3623 -10.3617 -10.3613 -10.3478 -10.3477 -10.3215
   -10.3214 -10.3151 -10.3149 -10.3051 -10.3050 -10.3012 -10.3006 -10.2984
   -10.2947 -10.2947 -10.2781 -10.2781 -10.2631 -10.2605  -7.1218  -6.7149
    -6.7117  -5.7867  -5.7846  -5.3716  -5.3287  -5.3284  -5.2906  -5.2320
    -5.2261  -5.1776  -5.0929  -5.0821  -4.9893  -4.9834  -4.9689  -4.9611
     1.8128   1.8876   1.8883   2.6200   2.6213   3.3787   4.7333   4.7684
     4.8960   4.9013   4.9504   4.9689   5.0933   5.1022   5.1488   5.1783
     5.2147   5.2381   5.2841   5.3930   5.3986   5.6914   6.3832   6.4221
     6.7454   6.8139   6.9084   7.0244   7.0279   7.1588   7.1930   7.4454
     7.4737   7.5431   7.7431   7.7861   7.8206   7.9703   8.1615   8.1772
     8.6289   8.6319   8.8853   8.9269   9.2554   9.3116   9.3481   9.3492
     9.3863   9.3928   9.5610   9.6717   9.7667   9.7989  10.0956  10.1885
    10.2100  10.2265  10.2363  10.2856  10.3208  10.4674  10.5651  10.8505
    10.8932  10.9462  11.0942  11.2282  11.3319  11.3670  11.3758  11.4816
    11.5008  11.6754  11.6968  14.1348  14.1427  14.2544  14.2642  14.2988
    14.3024  14.3149  14.3733  14.3805  15.0053  15.0199  15.2010  15.2178
    15.3224  15.3631  15.8365  15.8494  16.1663  16.1769  17.1294  17.2065
    17.2078  17.3370  17.5095  17.5102  17.5868  17.5878  17.9292  17.9688

          k = 0.0667 0.0000 0.0000 ( 10353 PWs)   bands (ev):

   -78.9439 -78.9417 -78.9405 -73.8034 -73.8021 -73.8005 -44.9614 -44.9600
   -44.9587 -44.8879 -44.8879 -44.8856 -44.8856 -44.8844 -44.8844 -39.9513
   -39.9498 -39.9478 -39.8972 -39.8972 -39.8958 -39.8958 -39.8946 -39.8946
   -10.4562 -10.4552 -10.4215 -10.4215 -10.4081 -10.4080 -10.3841 -10.3647
   -10.3645 -10.3639 -10.3637 -10.3622 -10.3618 -10.3531 -10.3530 -10.3193
   -10.3192 -10.3133 -10.3132 -10.3077 -10.3077 -10.2995 -10.2993 -10.2977
   -10.2901 -10.2900 -10.2814 -10.2814 -10.2597 -10.2590  -7.1568  -6.7437
    -6.7404  -5.7899  -5.7882  -5.3129  -5.2993  -5.2991  -5.2827  -5.2237
    -5.2225  -5.2094  -5.0711  -5.0690  -4.9923  -4.9911  -4.9533  -4.9513
     1.8233   1.8974   1.8981   2.6583   2.6597   3.4901   4.7180   4.7270
     4.8826   4.8834   4.9203   4.9223   5.1430   5.1439   5.1679   5.1747
     5.2339   5.2365   5.2402   5.3577   5.3602   5.6374   6.3995   6.4060
     6.7425   6.7513   6.8588   6.9783   6.9807   7.0582   7.0657   7.5182
     7.5248   7.5638   7.6257   7.7434   7.7509   7.8477   8.1729   8.1754
     8.5618   8.5644   8.9310   8.9387   9.2654   9.2763   9.3991   9.4083
     9.4217   9.4397   9.5711   9.6195   9.6775   9.7025  10.2065  10.2335
    10.2631  10.2714  10.3192  10.3310  10.3382  10.5815  10.6282  10.8594
    11.0717  11.0745  11.0825  11.1466  11.1985  11.3839  11.3849  11.4933
    11.5001  11.6004  11.6025  14.1212  14.1241  14.2572  14.2621  14.2889
    14.2990  14.2997  14.3672  14.3684  15.0623  15.0654  15.2000  15.2033
    15.3737  15.3845  15.8640  15.8665  16.1699  16.1719  17.2977  17.2983
    17.3668  17.4417  17.4672  17.4678  17.7674  17.7676  17.9235  17.9693

          k = 0.0000 0.0000 0.0000 ( 10359 PWs)   bands (ev):

   -78.9439 -78.9417 -78.9405 -73.8034 -73.8021 -73.8005 -44.9614 -44.9600
   -44.9587 -44.8879 -44.8879 -44.8856 -44.8856 -44.8844 -44.8844 -39.9513
   -39.9498 -39.9478 -39.8972 -39.8972 -39.8958 -39.8958 -39.8946 -39.8946
   -10.4569 -10.4569 -10.4158 -10.4158 -10.4147 -10.4147 -10.3845 -10.3650
   -10.3650 -10.3629 -10.3626 -10.3586 -10.3586 -10.3581 -10.3580 -10.3186
   -10.3185 -10.3108 -10.3108 -10.3106 -10.3105 -10.2989 -10.2989 -10.2975
   -10.2855 -10.2855 -10.2854 -10.2854 -10.2586 -10.2586  -7.1685  -6.7534
    -6.7501  -5.7915  -5.7898  -5.2871  -5.2871  -5.2800  -5.2799  -5.2333
    -5.2236  -5.2235  -5.0620  -5.0619  -4.9950  -4.9949  -4.9479  -4.9479
     1.8274   1.9010   1.9018   2.6720   2.6734   3.5308   4.7123   4.7123
     4.8786   4.8786   4.9032   4.9032   5.1638   5.1638   5.1746   5.1746
     5.2181   5.2517   5.2518   5.3343   5.3354   5.6191   6.4025   6.4043
     6.7269   6.7269   6.8626   6.9805   6.9805   7.0022   7.0022   7.5608
     7.5615   7.5784   7.5784   7.7110   7.7110   7.8005   8.1761   8.1762
     8.5377   8.5404   8.9428   8.9429   9.2608   9.2609   9.4158   9.4158
     9.4942   9.4943   9.5957   9.5958   9.6128   9.6136  10.2382  10.2382
    10.2893  10.2893  10.3465  10.3466  10.3552  10.6607  10.6607  10.8459
    11.0864  11.0864  11.1349  11.1628  11.1647  11.3673  11.3674  11.5029
    11.5032  11.5567  11.5568  14.1155  14.1183  14.2619  14.2619  14.2756
    14.2993  14.2993  14.3643  14.3643  15.0848  15.0849  15.1962  15.1962
    15.3919  15.3919  15.8698  15.8716  16.1703  16.1717  17.3779  17.3780
    17.4020  17.4020  17.4817  17.4817  17.8861  17.9135  17.9136  17.9516

     Writing output data file /home/aldair1809/Documentos/QE/4BFO/temp_tipoA/bands/bifeo3.save/

     init_run     :    128.87s CPU    130.98s WALL (       1 calls)
     electrons    :  16884.41s CPU  17053.32s WALL (       1 calls)

     Called by init_run:
     wfcinit      :    124.63s CPU    126.01s WALL (       1 calls)
     wfcinit:atom :      0.43s CPU      0.44s WALL (      62 calls)
     wfcinit:wfcr :    316.55s CPU    319.60s WALL (      62 calls)
     potinit      :      0.42s CPU      0.59s WALL (       1 calls)
     hinit0       :      1.50s CPU      1.52s WALL (       1 calls)

     Called by electrons:
     c_bands      :  16884.39s CPU  17053.29s WALL (       1 calls)
     v_of_rho     :      0.32s CPU      0.35s WALL (       1 calls)
     v_h          :      0.02s CPU      0.02s WALL (       1 calls)
     v_xc         :      0.30s CPU      0.34s WALL (       1 calls)
     newd         :      2.23s CPU      2.75s WALL (       1 calls)

     Called by c_bands:
     init_us_2    :      1.25s CPU      1.27s WALL (     124 calls)
     ccgdiagg     :  15275.08s CPU  15428.96s WALL (     361 calls)
     wfcrot       :   1604.95s CPU   1619.19s WALL (     361 calls)

     Called by sum_band:

     Called by *cgdiagg:
     h_psi        :   7623.93s CPU   7752.85s WALL (  463876 calls)
     s_psi        :   4453.53s CPU   4471.94s WALL (  927453 calls)

     Called by h_psi:
     h_psi:calbec :   2612.85s CPU   2640.67s WALL (  463876 calls)
     vloc_psi     :   1897.85s CPU   1986.28s WALL (  463876 calls)
     add_vuspsi   :   2333.46s CPU   2341.45s WALL (  463876 calls)
     vhpsi        :    763.79s CPU    769.89s WALL (  463876 calls)
     hs_1psi      :   8755.06s CPU   8879.47s WALL (  463515 calls)
     s_1psi       :   4315.92s CPU   4334.39s WALL (  463515 calls)

     General routines
     calbec       :   5530.41s CPU   5575.68s WALL ( 1391329 calls)
     fft          :      0.39s CPU      0.40s WALL (      23 calls)
     ffts         :      0.01s CPU      0.01s WALL (       2 calls)
     fftw         :   1708.70s CPU   1792.89s WALL ( 1057574 calls)
     interpolate  :      0.03s CPU      0.03s WALL (       2 calls)
     davcio       :      0.06s CPU      9.41s WALL (     248 calls)

     Parallel routines
     fft_scatt_xy :    176.57s CPU    188.85s WALL ( 1057599 calls)
     fft_scatt_yz :    445.80s CPU    483.72s WALL ( 1057599 calls)

     Hubbard U routines
     vhpsi        :    763.79s CPU    769.89s WALL (  463876 calls)

     PWSCF        :      4h43m CPU      4h46m WALL


   This run was terminated on:  15: 0:51  15Dec2024            

=------------------------------------------------------------------------------=
   JOB DONE.
=------------------------------------------------------------------------------=
