
     Program BANDS v.6.7MaX starts on 15Dec2024 at 23:37:20 

     This program is part of the open-source Quantum ESPRESSO suite
     for quantum simulation of materials; please cite
         "P. Giannozzi et al., J. Phys.:Condens. Matter 21 395502 (2009);
         "P. Giannozzi et al., J. Phys.:Condens. Matter 29 465901 (2017);
          URL http://www.quantum-espresso.org", 
     in publications or presentations arising from this work. More details at
     http://www.quantum-espresso.org/quote

     Parallel version (MPI), running on     6 processors

     MPI processes distributed on     1 nodes
     R & G space division:  proc/nbgrp/npool/nimage =       6

     Reading xml data from directory:

     /home/aldair1809/Documentos/QE/4BFO/temp_tipoA/bands/bifeo3.save/

     IMPORTANT: XC functional enforced from input :
     Exchange-correlation= PBE
                           (   1   4   3   4   0   0   0)
     Any further DFT definition will be discarded
     Please, verify this is what you really want


     Parallelization info
     --------------------
     sticks:   dense  smooth     PW     G-vecs:    dense   smooth      PW
     Min         401     200     57                39339    13882    2095
     Max         402     201     59                39350    13889    2099
     Sum        2407    1201    349               236061    83311   12583


     Check: negative core charge=   -0.000014

     negative rho (up, down):  1.183E-01 1.183E-01
     Reading collected, re-writing distributed wavefunctions
     high-symmetry point:  0.0000 0.0000 0.0000   x coordinate   0.0000
     high-symmetry point:  0.5000 0.2887 0.0000   x coordinate   0.5774
     high-symmetry point:  0.6667 0.0000 0.0000   x coordinate   0.9107
     high-symmetry point:  0.0000 0.0000 0.0000   x coordinate   1.5774

     Plottable bands (eV) written to file bifeo3.bandas_2.gnu
     Bands written to file bifeo3.bandas_2

 **************************************************************************

                    xk=(   0.00000,   0.00000,   0.00000  )

     point group C_1 (1)    
     there are  1 classes
     the character table:

       E    
A      1.00

     the symmetry operations in each class and the name of the first element:

     E        1
                                                                 

     Band symmetry, C_1 (1)     point group:

     e(  1 -  1) =    -79.47693  eV     1   --> A              
     e(  2 -  2) =    -79.28738  eV     1   --> A              
     e(  3 -  3) =    -79.23794  eV     1   --> A              
     e(  4 -  4) =    -74.19551  eV     1   --> A              
     e(  5 -  5) =    -74.07214  eV     1   --> A              
     e(  6 -  6) =    -74.05677  eV     1   --> A              
     e(  7 -  7) =    -45.46953  eV     1   --> A              
     e(  8 -  9) =    -45.41759  eV     2   -->   2 A              
     e( 10 - 11) =    -45.27645  eV     2   -->   2 A              
     e( 12 - 13) =    -45.23596  eV     2   -->   2 A              
     e( 14 - 15) =    -45.16766  eV     2   -->   2 A              
     e( 16 - 16) =    -40.33091  eV     1   --> A              
     e( 17 - 18) =    -40.28135  eV     2   -->   2 A              
     e( 19 - 19) =    -40.20882  eV     1   --> A              
     e( 20 - 20) =    -40.20689  eV     1   --> A              
     e( 21 - 22) =    -40.16223  eV     2   -->   2 A              
     e( 23 - 24) =    -40.14573  eV     2   -->   2 A              
     e( 25 - 26) =    -10.57784  eV     2   -->   2 A              
     e( 27 - 28) =    -10.55468  eV     2   -->   2 A              
     e( 29 - 29) =    -10.53898  eV     1   --> A              
     e( 30 - 30) =    -10.53056  eV     1   --> A              
     e( 31 - 32) =    -10.51155  eV     2   -->   2 A              
     e( 33 - 34) =    -10.49569  eV     2   -->   2 A              
     e( 35 - 36) =    -10.48910  eV     2   -->   2 A              
     e( 37 - 38) =    -10.46608  eV     2   -->   2 A              
     e( 39 - 39) =    -10.44221  eV     1   --> A              
     e( 40 - 40) =    -10.43118  eV     1   --> A              
     e( 41 - 42) =    -10.41881  eV     2   -->   2 A              
     e( 43 - 44) =    -10.40841  eV     2   -->   2 A              
     e( 45 - 46) =    -10.39893  eV     2   -->   2 A              
     e( 47 - 47) =    -10.39400  eV     1   --> A              
     e( 48 - 49) =    -10.38781  eV     2   -->   2 A              
     e( 50 - 50) =    -10.38525  eV     1   --> A              
     e( 51 - 52) =    -10.36035  eV     2   -->   2 A              
     e( 53 - 54) =    -10.34998  eV     2   -->   2 A              
     e( 55 - 55) =     -7.27328  eV     1   --> A              
     e( 56 - 56) =     -6.87959  eV     1   --> A              
     e( 57 - 57) =     -6.76700  eV     1   --> A              
     e( 58 - 58) =     -5.92770  eV     1   --> A              
     e( 59 - 59) =     -5.85674  eV     1   --> A              
     e( 60 - 61) =     -5.55887  eV     2   -->   2 A              
     e( 62 - 63) =     -5.44993  eV     2   -->   2 A              
     e( 64 - 65) =     -5.34949  eV     2   -->   2 A              
     e( 66 - 66) =     -5.29182  eV     1   --> A              
     e( 67 - 67) =     -5.22605  eV     1   --> A              
     e( 68 - 68) =     -5.22590  eV     1   --> A              
     e( 69 - 70) =     -4.99215  eV     2   -->   2 A              
     e( 71 - 72) =     -4.83581  eV     2   -->   2 A              
     e( 73 - 73) =      1.64706  eV     1   --> A              
     e( 74 - 74) =      1.77244  eV     1   --> A              
     e( 75 - 75) =      1.82775  eV     1   --> A              
     e( 76 - 76) =      2.52008  eV     1   --> A              
     e( 77 - 77) =      2.63469  eV     1   --> A              
     e( 78 - 78) =      3.42476  eV     1   --> A              
     e( 79 - 80) =      4.17114  eV     2   -->   2 A              
     e( 81 - 82) =      4.31010  eV     2   -->   2 A              
     e( 83 - 84) =      4.65895  eV     2   -->   2 A              
     e( 85 - 86) =      4.87344  eV     2   -->   2 A              
     e( 87 - 87) =      4.89582  eV     1   --> A              
     e( 88 - 88) =      5.02972  eV     1   --> A              
     e( 89 - 89) =      5.08320  eV     1   --> A              
     e( 90 - 91) =      5.13894  eV     2   -->   2 A              
     e( 92 - 92) =      5.47652  eV     1   --> A              
     e( 93 - 94) =      5.52460  eV     2   -->   2 A              
     e( 95 - 95) =      6.19412  eV     1   --> A              
     e( 96 - 97) =      6.33773  eV     2   -->   2 A              
     e( 98 - 98) =      6.46796  eV     1   --> A              
     e( 99 -100) =      6.76071  eV     2   -->   2 A              
     e(101 -101) =      6.90506  eV     1   --> A              
     e(102 -103) =      7.04461  eV     2   -->   2 A              
     e(104 -104) =      7.34415  eV     1   --> A              
     e(105 -106) =      7.40288  eV     2   -->   2 A              
     e(107 -107) =      7.51445  eV     1   --> A              
     e(108 -108) =      7.60161  eV     1   --> A              
     e(109 -110) =      7.82295  eV     2   -->   2 A              
     e(111 -112) =      8.11188  eV     2   -->   2 A              
     e(113 -113) =      8.34615  eV     1   --> A              
     e(114 -115) =      8.43865  eV     2   -->   2 A              
     e(116 -116) =      8.44363  eV     1   --> A              
     e(117 -118) =      8.93751  eV     2   -->   2 A              
     e(119 -120) =      9.17461  eV     2   -->   2 A              
     e(121 -121) =      9.38123  eV     1   --> A              
     e(122 -123) =      9.42869  eV     2   -->   2 A              
     e(124 -124) =      9.45972  eV     1   --> A              
     e(125 -126) =      9.68849  eV     2   -->   2 A              
     e(127 -128) =     10.06370  eV     2   -->   2 A              
     e(129 -130) =     10.16460  eV     2   -->   2 A              
     e(131 -131) =     10.16851  eV     1   --> A              
     e(132 -133) =     10.21530  eV     2   -->   2 A              
     e(134 -135) =     10.45030  eV     2   -->   2 A              
     e(136 -137) =     10.66548  eV     2   -->   2 A              
     e(138 -138) =     10.81463  eV     1   --> A              
     e(139 -139) =     10.95051  eV     1   --> A              
     e(140 -140) =     11.15917  eV     1   --> A              
     e(141 -142) =     11.18308  eV     2   -->   2 A              
     e(143 -143) =     11.25813  eV     1   --> A              
     e(144 -144) =     11.28664  eV     1   --> A              
     e(145 -145) =     11.34425  eV     1   --> A              
     e(146 -147) =     11.94402  eV     2   -->   2 A              
     e(148 -149) =     13.74237  eV     2   -->   2 A              
     e(150 -150) =     13.85840  eV     1   --> A              
     e(151 -151) =     13.93495  eV     1   --> A              
     e(152 -153) =     13.99714  eV     2   -->   2 A              
     e(154 -154) =     14.05324  eV     1   --> A              
     e(155 -156) =     14.18074  eV     2   -->   2 A              
     e(157 -158) =     14.30350  eV     2   -->   2 A              
     e(159 -160) =     14.98470  eV     2   -->   2 A              
     e(161 -161) =     15.60619  eV     1   --> A              
     e(162 -163) =     15.63825  eV     2   -->   2 A              
     e(164 -164) =     15.83463  eV     1   --> A              
     e(165 -165) =     15.90944  eV     1   --> A              
     e(166 -166) =     16.04244  eV     1   --> A              
     e(167 -168) =     17.26330  eV     2   -->   2 A              
     e(169 -170) =     17.29118  eV     2   -->   2 A              
     e(171 -172) =     17.37221  eV     2   -->   2 A              
     e(173 -173) =     17.65540  eV     1   --> A              
     e(174 -174) =     17.73097  eV     1   --> A              
     e(175 -176) =     17.80615  eV     2   -->   2 A              

 **************************************************************************

 **************************************************************************

                    xk=(   0.05000,   0.02887,   0.00000  )

     Band symmetry, C_1 (1)     point group:

     e(  1 -  1) =    -79.47693  eV     1   --> A              
     e(  2 -  2) =    -79.28738  eV     1   --> A              
     e(  3 -  3) =    -79.23794  eV     1   --> A              
     e(  4 -  4) =    -74.19551  eV     1   --> A              
     e(  5 -  5) =    -74.07214  eV     1   --> A              
     e(  6 -  6) =    -74.05677  eV     1   --> A              
     e(  7 -  7) =    -45.46953  eV     1   --> A              
     e(  8 -  9) =    -45.41759  eV     2   -->   2 A              
     e( 10 - 11) =    -45.27645  eV     2   -->   2 A              
     e( 12 - 13) =    -45.23596  eV     2   -->   2 A              
     e( 14 - 15) =    -45.16766  eV     2   -->   2 A              
     e( 16 - 16) =    -40.33091  eV     1   --> A              
     e( 17 - 18) =    -40.28135  eV     2   -->   2 A              
     e( 19 - 19) =    -40.20882  eV     1   --> A              
     e( 20 - 20) =    -40.20689  eV     1   --> A              
     e( 21 - 22) =    -40.16223  eV     2   -->   2 A              
     e( 23 - 24) =    -40.14573  eV     2   -->   2 A              
     e( 25 - 25) =    -10.57749  eV     1   --> A              
     e( 26 - 26) =    -10.57688  eV     1   --> A              
     e( 27 - 27) =    -10.55515  eV     1   --> A              
     e( 28 - 28) =    -10.55474  eV     1   --> A              
     e( 29 - 29) =    -10.53891  eV     1   --> A              
     e( 30 - 30) =    -10.53055  eV     1   --> A              
     e( 31 - 31) =    -10.51067  eV     1   --> A              
     e( 32 - 32) =    -10.51052  eV     1   --> A              
     e( 33 - 34) =    -10.49570  eV     2   -->   2 A              
     e( 35 - 35) =    -10.48882  eV     1   --> A              
     e( 36 - 36) =    -10.48870  eV     1   --> A              
     e( 37 - 38) =    -10.46624  eV     2   -->   2 A              
     e( 39 - 39) =    -10.44200  eV     1   --> A              
     e( 40 - 40) =    -10.43123  eV     1   --> A              
     e( 41 - 42) =    -10.41874  eV     2   -->   2 A              
     e( 43 - 43) =    -10.40886  eV     1   --> A              
     e( 44 - 44) =    -10.40875  eV     1   --> A              
     e( 45 - 45) =    -10.39901  eV     1   --> A              
     e( 46 - 46) =    -10.39874  eV     1   --> A              
     e( 47 - 47) =    -10.39385  eV     1   --> A              
     e( 48 - 48) =    -10.38820  eV     1   --> A              
     e( 49 - 49) =    -10.38794  eV     1   --> A              
     e( 50 - 50) =    -10.38504  eV     1   --> A              
     e( 51 - 51) =    -10.36051  eV     1   --> A              
     e( 52 - 52) =    -10.36023  eV     1   --> A              
     e( 53 - 53) =    -10.35058  eV     1   --> A              
     e( 54 - 54) =    -10.35019  eV     1   --> A              
     e( 55 - 55) =     -7.26469  eV     1   --> A              
     e( 56 - 56) =     -6.87247  eV     1   --> A              
     e( 57 - 57) =     -6.75970  eV     1   --> A              
     e( 58 - 58) =     -5.92630  eV     1   --> A              
     e( 59 - 59) =     -5.85604  eV     1   --> A              
     e( 60 - 60) =     -5.56516  eV     1   --> A              
     e( 61 - 61) =     -5.56126  eV     1   --> A              
     e( 62 - 62) =     -5.45423  eV     1   --> A              
     e( 63 - 63) =     -5.45231  eV     1   --> A              
     e( 64 - 64) =     -5.35525  eV     1   --> A              
     e( 65 - 65) =     -5.35224  eV     1   --> A              
     e( 66 - 66) =     -5.29368  eV     1   --> A              
     e( 67 - 67) =     -5.22950  eV     1   --> A              
     e( 68 - 68) =     -5.22668  eV     1   --> A              
     e( 69 - 69) =     -4.99729  eV     1   --> A              
     e( 70 - 70) =     -4.99517  eV     1   --> A              
     e( 71 - 71) =     -4.83722  eV     1   --> A              
     e( 72 - 72) =     -4.83540  eV     1   --> A              
     e( 73 - 73) =      1.64413  eV     1   --> A              
     e( 74 - 74) =      1.76968  eV     1   --> A              
     e( 75 - 75) =      1.82512  eV     1   --> A              
     e( 76 - 76) =      2.51040  eV     1   --> A              
     e( 77 - 77) =      2.62415  eV     1   --> A              
     e( 78 - 78) =      3.39397  eV     1   --> A              
     e( 79 - 79) =      4.17227  eV     1   --> A              
     e( 80 - 80) =      4.17982  eV     1   --> A              
     e( 81 - 81) =      4.31025  eV     1   --> A              
     e( 82 - 82) =      4.31920  eV     1   --> A              
     e( 83 - 83) =      4.66491  eV     1   --> A              
     e( 84 - 84) =      4.66744  eV     1   --> A              
     e( 85 - 85) =      4.85873  eV     1   --> A              
     e( 86 - 86) =      4.87016  eV     1   --> A              
     e( 87 - 87) =      4.90078  eV     1   --> A              
     e( 88 - 88) =      5.02965  eV     1   --> A              
     e( 89 - 89) =      5.06859  eV     1   --> A              
     e( 90 - 90) =      5.14187  eV     1   --> A              
     e( 91 - 91) =      5.16212  eV     1   --> A              
     e( 92 - 92) =      5.48513  eV     1   --> A              
     e( 93 - 93) =      5.52419  eV     1   --> A              
     e( 94 - 94) =      5.52755  eV     1   --> A              
     e( 95 - 95) =      6.19856  eV     1   --> A              
     e( 96 - 96) =      6.35958  eV     1   --> A              
     e( 97 - 97) =      6.36100  eV     1   --> A              
     e( 98 - 98) =      6.47110  eV     1   --> A              
     e( 99 - 99) =      6.74603  eV     1   --> A              
     e(100 -100) =      6.78226  eV     1   --> A              
     e(101 -101) =      6.92459  eV     1   --> A              
     e(102 -102) =      7.05225  eV     1   --> A              
     e(103 -103) =      7.08719  eV     1   --> A              
     e(104 -104) =      7.31943  eV     1   --> A              
     e(105 -105) =      7.37496  eV     1   --> A              
     e(106 -106) =      7.41334  eV     1   --> A              
     e(107 -107) =      7.55268  eV     1   --> A              
     e(108 -108) =      7.61535  eV     1   --> A              
     e(109 -109) =      7.81811  eV     1   --> A              
     e(110 -110) =      7.84891  eV     1   --> A              
     e(111 -111) =      8.11041  eV     1   --> A              
     e(112 -112) =      8.13264  eV     1   --> A              
     e(113 -113) =      8.36087  eV     1   --> A              
     e(114 -114) =      8.40761  eV     1   --> A              
     e(115 -115) =      8.44584  eV     1   --> A              
     e(116 -116) =      8.49738  eV     1   --> A              
     e(117 -117) =      8.91608  eV     1   --> A              
     e(118 -118) =      8.93273  eV     1   --> A              
     e(119 -119) =      9.15968  eV     1   --> A              
     e(120 -120) =      9.17469  eV     1   --> A              
     e(121 -121) =      9.34573  eV     1   --> A              
     e(122 -122) =      9.43410  eV     1   --> A              
     e(123 -123) =      9.45620  eV     1   --> A              
     e(124 -124) =      9.50762  eV     1   --> A              
     e(125 -125) =      9.66804  eV     1   --> A              
     e(126 -126) =      9.68281  eV     1   --> A              
     e(127 -127) =     10.02283  eV     1   --> A              
     e(128 -128) =     10.05759  eV     1   --> A              
     e(129 -129) =     10.12848  eV     1   --> A              
     e(130 -130) =     10.14890  eV     1   --> A              
     e(131 -131) =     10.16013  eV     1   --> A              
     e(132 -132) =     10.19588  eV     1   --> A              
     e(133 -133) =     10.22048  eV     1   --> A              
     e(134 -134) =     10.42884  eV     1   --> A              
     e(135 -135) =     10.44245  eV     1   --> A              
     e(136 -136) =     10.62682  eV     1   --> A              
     e(137 -137) =     10.67078  eV     1   --> A              
     e(138 -138) =     10.84070  eV     1   --> A              
     e(139 -139) =     10.98487  eV     1   --> A              
     e(140 -140) =     11.05040  eV     1   --> A              
     e(141 -141) =     11.17440  eV     1   --> A              
     e(142 -142) =     11.20689  eV     1   --> A              
     e(143 -143) =     11.28658  eV     1   --> A              
     e(144 -144) =     11.31245  eV     1   --> A              
     e(145 -145) =     11.38330  eV     1   --> A              
     e(146 -146) =     11.93750  eV     1   --> A              
     e(147 -147) =     11.94379  eV     1   --> A              
     e(148 -148) =     13.73429  eV     1   --> A              
     e(149 -149) =     13.74424  eV     1   --> A              
     e(150 -150) =     13.87025  eV     1   --> A              
     e(151 -151) =     13.92415  eV     1   --> A              
     e(152 -152) =     13.99781  eV     1   --> A              
     e(153 -153) =     14.00781  eV     1   --> A              
     e(154 -154) =     14.05997  eV     1   --> A              
     e(155 -155) =     14.17692  eV     1   --> A              
     e(156 -156) =     14.17723  eV     1   --> A              
     e(157 -157) =     14.30791  eV     1   --> A              
     e(158 -158) =     14.31106  eV     1   --> A              
     e(159 -159) =     14.97181  eV     1   --> A              
     e(160 -160) =     14.98353  eV     1   --> A              
     e(161 -161) =     15.60143  eV     1   --> A              
     e(162 -162) =     15.61975  eV     1   --> A              
     e(163 -163) =     15.63459  eV     1   --> A              
     e(164 -164) =     15.82988  eV     1   --> A              
     e(165 -165) =     15.91224  eV     1   --> A              
     e(166 -166) =     16.04564  eV     1   --> A              
     e(167 -167) =     17.18648  eV     1   --> A              
     e(168 -168) =     17.20141  eV     1   --> A              
     e(169 -169) =     17.25533  eV     1   --> A              
     e(170 -170) =     17.30790  eV     1   --> A              
     e(171 -171) =     17.36075  eV     1   --> A              
     e(172 -172) =     17.37561  eV     1   --> A              
     e(173 -173) =     17.68715  eV     1   --> A              
     e(174 -174) =     17.70301  eV     1   --> A              
     e(175 -175) =     17.70986  eV     1   --> A              
     e(176 -176) =     17.75025  eV     1   --> A              

 **************************************************************************

 **************************************************************************

                    xk=(   0.10000,   0.05774,   0.00000  )

     Band symmetry, C_1 (1)     point group:

     e(  1 -  1) =    -79.47693  eV     1   --> A              
     e(  2 -  2) =    -79.28738  eV     1   --> A              
     e(  3 -  3) =    -79.23794  eV     1   --> A              
     e(  4 -  4) =    -74.19551  eV     1   --> A              
     e(  5 -  5) =    -74.07214  eV     1   --> A              
     e(  6 -  6) =    -74.05677  eV     1   --> A              
     e(  7 -  7) =    -45.46953  eV     1   --> A              
     e(  8 -  9) =    -45.41759  eV     2   -->   2 A              
     e( 10 - 11) =    -45.27645  eV     2   -->   2 A              
     e( 12 - 13) =    -45.23596  eV     2   -->   2 A              
     e( 14 - 15) =    -45.16766  eV     2   -->   2 A              
     e( 16 - 16) =    -40.33091  eV     1   --> A              
     e( 17 - 18) =    -40.28135  eV     2   -->   2 A              
     e( 19 - 19) =    -40.20882  eV     1   --> A              
     e( 20 - 20) =    -40.20689  eV     1   --> A              
     e( 21 - 22) =    -40.16223  eV     2   -->   2 A              
     e( 23 - 24) =    -40.14573  eV     2   -->   2 A              
     e( 25 - 25) =    -10.57640  eV     1   --> A              
     e( 26 - 26) =    -10.57407  eV     1   --> A              
     e( 27 - 27) =    -10.55657  eV     1   --> A              
     e( 28 - 28) =    -10.55476  eV     1   --> A              
     e( 29 - 29) =    -10.53868  eV     1   --> A              
     e( 30 - 30) =    -10.53045  eV     1   --> A              
     e( 31 - 31) =    -10.50848  eV     1   --> A              
     e( 32 - 32) =    -10.50788  eV     1   --> A              
     e( 33 - 33) =    -10.49572  eV     1   --> A              
     e( 34 - 34) =    -10.49557  eV     1   --> A              
     e( 35 - 35) =    -10.48797  eV     1   --> A              
     e( 36 - 36) =    -10.48755  eV     1   --> A              
     e( 37 - 37) =    -10.46679  eV     1   --> A              
     e( 38 - 38) =    -10.46664  eV     1   --> A              
     e( 39 - 39) =    -10.44148  eV     1   --> A              
     e( 40 - 40) =    -10.43133  eV     1   --> A              
     e( 41 - 41) =    -10.41865  eV     1   --> A              
     e( 42 - 42) =    -10.41850  eV     1   --> A              
     e( 43 - 43) =    -10.41007  eV     1   --> A              
     e( 44 - 44) =    -10.40979  eV     1   --> A              
     e( 45 - 45) =    -10.39939  eV     1   --> A              
     e( 46 - 46) =    -10.39836  eV     1   --> A              
     e( 47 - 47) =    -10.39352  eV     1   --> A              
     e( 48 - 48) =    -10.38935  eV     1   --> A              
     e( 49 - 49) =    -10.38836  eV     1   --> A              
     e( 50 - 50) =    -10.38477  eV     1   --> A              
     e( 51 - 51) =    -10.36112  eV     1   --> A              
     e( 52 - 52) =    -10.36007  eV     1   --> A              
     e( 53 - 53) =    -10.35218  eV     1   --> A              
     e( 54 - 54) =    -10.35074  eV     1   --> A              
     e( 55 - 55) =     -7.23905  eV     1   --> A              
     e( 56 - 56) =     -6.85127  eV     1   --> A              
     e( 57 - 57) =     -6.73799  eV     1   --> A              
     e( 58 - 58) =     -5.92312  eV     1   --> A              
     e( 59 - 59) =     -5.85485  eV     1   --> A              
     e( 60 - 60) =     -5.58256  eV     1   --> A              
     e( 61 - 61) =     -5.56859  eV     1   --> A              
     e( 62 - 62) =     -5.46896  eV     1   --> A              
     e( 63 - 63) =     -5.45916  eV     1   --> A              
     e( 64 - 64) =     -5.36966  eV     1   --> A              
     e( 65 - 65) =     -5.36002  eV     1   --> A              
     e( 66 - 66) =     -5.30273  eV     1   --> A              
     e( 67 - 67) =     -5.23947  eV     1   --> A              
     e( 68 - 68) =     -5.22714  eV     1   --> A              
     e( 69 - 69) =     -5.01171  eV     1   --> A              
     e( 70 - 70) =     -5.00365  eV     1   --> A              
     e( 71 - 71) =     -4.84180  eV     1   --> A              
     e( 72 - 72) =     -4.83454  eV     1   --> A              
     e( 73 - 73) =      1.63606  eV     1   --> A              
     e( 74 - 74) =      1.76186  eV     1   --> A              
     e( 75 - 75) =      1.81852  eV     1   --> A              
     e( 76 - 76) =      2.48233  eV     1   --> A              
     e( 77 - 77) =      2.59413  eV     1   --> A              
     e( 78 - 78) =      3.30823  eV     1   --> A              
     e( 79 - 79) =      4.17542  eV     1   --> A              
     e( 80 - 80) =      4.19774  eV     1   --> A              
     e( 81 - 81) =      4.32012  eV     1   --> A              
     e( 82 - 82) =      4.34344  eV     1   --> A              
     e( 83 - 83) =      4.67971  eV     1   --> A              
     e( 84 - 84) =      4.68722  eV     1   --> A              
     e( 85 - 85) =      4.83298  eV     1   --> A              
     e( 86 - 86) =      4.86407  eV     1   --> A              
     e( 87 - 87) =      4.90115  eV     1   --> A              
     e( 88 - 88) =      5.02190  eV     1   --> A              
     e( 89 - 89) =      5.06722  eV     1   --> A              
     e( 90 - 90) =      5.14886  eV     1   --> A              
     e( 91 - 91) =      5.19434  eV     1   --> A              
     e( 92 - 92) =      5.50234  eV     1   --> A              
     e( 93 - 93) =      5.52272  eV     1   --> A              
     e( 94 - 94) =      5.54551  eV     1   --> A              
     e( 95 - 95) =      6.21689  eV     1   --> A              
     e( 96 - 96) =      6.41126  eV     1   --> A              
     e( 97 - 97) =      6.41988  eV     1   --> A              
     e( 98 - 98) =      6.49016  eV     1   --> A              
     e( 99 - 99) =      6.73246  eV     1   --> A              
     e(100 -100) =      6.83952  eV     1   --> A              
     e(101 -101) =      6.98008  eV     1   --> A              
     e(102 -102) =      7.07709  eV     1   --> A              
     e(103 -103) =      7.18184  eV     1   --> A              
     e(104 -104) =      7.27532  eV     1   --> A              
     e(105 -105) =      7.33881  eV     1   --> A              
     e(106 -106) =      7.43957  eV     1   --> A              
     e(107 -107) =      7.59407  eV     1   --> A              
     e(108 -108) =      7.67670  eV     1   --> A              
     e(109 -109) =      7.80782  eV     1   --> A              
     e(110 -110) =      7.90976  eV     1   --> A              
     e(111 -111) =      8.10685  eV     1   --> A              
     e(112 -112) =      8.18722  eV     1   --> A              
     e(113 -113) =      8.38216  eV     1   --> A              
     e(114 -114) =      8.41643  eV     1   --> A              
     e(115 -115) =      8.47245  eV     1   --> A              
     e(116 -116) =      8.56339  eV     1   --> A              
     e(117 -117) =      8.86187  eV     1   --> A              
     e(118 -118) =      8.91470  eV     1   --> A              
     e(119 -119) =      9.13851  eV     1   --> A              
     e(120 -120) =      9.18056  eV     1   --> A              
     e(121 -121) =      9.31366  eV     1   --> A              
     e(122 -122) =      9.45524  eV     1   --> A              
     e(123 -123) =      9.49179  eV     1   --> A              
     e(124 -124) =      9.56266  eV     1   --> A              
     e(125 -125) =      9.63371  eV     1   --> A              
     e(126 -126) =      9.66838  eV     1   --> A              
     e(127 -127) =      9.90449  eV     1   --> A              
     e(128 -128) =     10.03577  eV     1   --> A              
     e(129 -129) =     10.06918  eV     1   --> A              
     e(130 -130) =     10.10431  eV     1   --> A              
     e(131 -131) =     10.12672  eV     1   --> A              
     e(132 -132) =     10.16052  eV     1   --> A              
     e(133 -133) =     10.21204  eV     1   --> A              
     e(134 -134) =     10.36006  eV     1   --> A              
     e(135 -135) =     10.42736  eV     1   --> A              
     e(136 -136) =     10.57137  eV     1   --> A              
     e(137 -137) =     10.66462  eV     1   --> A              
     e(138 -138) =     10.82547  eV     1   --> A              
     e(139 -139) =     10.96704  eV     1   --> A              
     e(140 -140) =     11.06346  eV     1   --> A              
     e(141 -141) =     11.15954  eV     1   --> A              
     e(142 -142) =     11.22703  eV     1   --> A              
     e(143 -143) =     11.28001  eV     1   --> A              
     e(144 -144) =     11.34177  eV     1   --> A              
     e(145 -145) =     11.48267  eV     1   --> A              
     e(146 -146) =     11.91816  eV     1   --> A              
     e(147 -147) =     11.94323  eV     1   --> A              
     e(148 -148) =     13.71857  eV     1   --> A              
     e(149 -149) =     13.75003  eV     1   --> A              
     e(150 -150) =     13.88266  eV     1   --> A              
     e(151 -151) =     13.91619  eV     1   --> A              
     e(152 -152) =     14.00327  eV     1   --> A              
     e(153 -153) =     14.02545  eV     1   --> A              
     e(154 -154) =     14.07718  eV     1   --> A              
     e(155 -155) =     14.16837  eV     1   --> A              
     e(156 -156) =     14.16928  eV     1   --> A              
     e(157 -157) =     14.31892  eV     1   --> A              
     e(158 -158) =     14.33265  eV     1   --> A              
     e(159 -159) =     14.93513  eV     1   --> A              
     e(160 -160) =     14.97973  eV     1   --> A              
     e(161 -161) =     15.55915  eV     1   --> A              
     e(162 -162) =     15.59574  eV     1   --> A              
     e(163 -163) =     15.62419  eV     1   --> A              
     e(164 -164) =     15.81155  eV     1   --> A              
     e(165 -165) =     15.92004  eV     1   --> A              
     e(166 -166) =     16.05316  eV     1   --> A              
     e(167 -167) =     17.03043  eV     1   --> A              
     e(168 -168) =     17.10568  eV     1   --> A              
     e(169 -169) =     17.14393  eV     1   --> A              
     e(170 -170) =     17.22484  eV     1   --> A              
     e(171 -171) =     17.38168  eV     1   --> A              
     e(172 -172) =     17.42545  eV     1   --> A              
     e(173 -173) =     17.51102  eV     1   --> A              
     e(174 -174) =     17.57659  eV     1   --> A              
     e(175 -175) =     17.74895  eV     1   --> A              
     e(176 -176) =     17.78414  eV     1   --> A              

 **************************************************************************

 **************************************************************************

                    xk=(   0.15000,   0.08660,   0.00000  )

     Band symmetry, C_1 (1)     point group:

     e(  1 -  1) =    -79.47693  eV     1   --> A              
     e(  2 -  2) =    -79.28738  eV     1   --> A              
     e(  3 -  3) =    -79.23794  eV     1   --> A              
     e(  4 -  4) =    -74.19551  eV     1   --> A              
     e(  5 -  5) =    -74.07214  eV     1   --> A              
     e(  6 -  6) =    -74.05677  eV     1   --> A              
     e(  7 -  7) =    -45.46953  eV     1   --> A              
     e(  8 -  9) =    -45.41759  eV     2   -->   2 A              
     e( 10 - 11) =    -45.27645  eV     2   -->   2 A              
     e( 12 - 13) =    -45.23597  eV     2   -->   2 A              
     e( 14 - 15) =    -45.16766  eV     2   -->   2 A              
     e( 16 - 16) =    -40.33091  eV     1   --> A              
     e( 17 - 18) =    -40.28135  eV     2   -->   2 A              
     e( 19 - 19) =    -40.20882  eV     1   --> A              
     e( 20 - 20) =    -40.20689  eV     1   --> A              
     e( 21 - 22) =    -40.16224  eV     2   -->   2 A              
     e( 23 - 24) =    -40.14574  eV     2   -->   2 A              
     e( 25 - 25) =    -10.57493  eV     1   --> A              
     e( 26 - 26) =    -10.56978  eV     1   --> A              
     e( 27 - 27) =    -10.55868  eV     1   --> A              
     e( 28 - 28) =    -10.55430  eV     1   --> A              
     e( 29 - 29) =    -10.53831  eV     1   --> A              
     e( 30 - 30) =    -10.53014  eV     1   --> A              
     e( 31 - 31) =    -10.50567  eV     1   --> A              
     e( 32 - 32) =    -10.50468  eV     1   --> A              
     e( 33 - 33) =    -10.49565  eV     1   --> A              
     e( 34 - 34) =    -10.49522  eV     1   --> A              
     e( 35 - 35) =    -10.48653  eV     1   --> A              
     e( 36 - 36) =    -10.48567  eV     1   --> A              
     e( 37 - 37) =    -10.46770  eV     1   --> A              
     e( 38 - 38) =    -10.46745  eV     1   --> A              
     e( 39 - 39) =    -10.44078  eV     1   --> A              
     e( 40 - 40) =    -10.43150  eV     1   --> A              
     e( 41 - 41) =    -10.41860  eV     1   --> A              
     e( 42 - 42) =    -10.41817  eV     1   --> A              
     e( 43 - 43) =    -10.41155  eV     1   --> A              
     e( 44 - 44) =    -10.41107  eV     1   --> A              
     e( 45 - 45) =    -10.40026  eV     1   --> A              
     e( 46 - 46) =    -10.39818  eV     1   --> A              
     e( 47 - 47) =    -10.39324  eV     1   --> A              
     e( 48 - 48) =    -10.39087  eV     1   --> A              
     e( 49 - 49) =    -10.38892  eV     1   --> A              
     e( 50 - 50) =    -10.38446  eV     1   --> A              
     e( 51 - 51) =    -10.36237  eV     1   --> A              
     e( 52 - 52) =    -10.35989  eV     1   --> A              
     e( 53 - 53) =    -10.35481  eV     1   --> A              
     e( 54 - 54) =    -10.35173  eV     1   --> A              
     e( 55 - 55) =     -7.19678  eV     1   --> A              
     e( 56 - 56) =     -6.81660  eV     1   --> A              
     e( 57 - 57) =     -6.70243  eV     1   --> A              
     e( 58 - 58) =     -5.92252  eV     1   --> A              
     e( 59 - 59) =     -5.85506  eV     1   --> A              
     e( 60 - 60) =     -5.60684  eV     1   --> A              
     e( 61 - 61) =     -5.58046  eV     1   --> A              
     e( 62 - 62) =     -5.49678  eV     1   --> A              
     e( 63 - 63) =     -5.46942  eV     1   --> A              
     e( 64 - 64) =     -5.38804  eV     1   --> A              
     e( 65 - 65) =     -5.37178  eV     1   --> A              
     e( 66 - 66) =     -5.32242  eV     1   --> A              
     e( 67 - 67) =     -5.25361  eV     1   --> A              
     e( 68 - 68) =     -5.22659  eV     1   --> A              
     e( 69 - 69) =     -5.03209  eV     1   --> A              
     e( 70 - 70) =     -5.01613  eV     1   --> A              
     e( 71 - 71) =     -4.84975  eV     1   --> A              
     e( 72 - 72) =     -4.83403  eV     1   --> A              
     e( 73 - 73) =      1.62467  eV     1   --> A              
     e( 74 - 74) =      1.74890  eV     1   --> A              
     e( 75 - 75) =      1.81298  eV     1   --> A              
     e( 76 - 76) =      2.43718  eV     1   --> A              
     e( 77 - 77) =      2.55029  eV     1   --> A              
     e( 78 - 78) =      3.18278  eV     1   --> A              
     e( 79 - 79) =      4.17951  eV     1   --> A              
     e( 80 - 80) =      4.20800  eV     1   --> A              
     e( 81 - 81) =      4.35735  eV     1   --> A              
     e( 82 - 82) =      4.37702  eV     1   --> A              
     e( 83 - 83) =      4.68374  eV     1   --> A              
     e( 84 - 84) =      4.71478  eV     1   --> A              
     e( 85 - 85) =      4.82049  eV     1   --> A              
     e( 86 - 86) =      4.85959  eV     1   --> A              
     e( 87 - 87) =      4.88696  eV     1   --> A              
     e( 88 - 88) =      5.02260  eV     1   --> A              
     e( 89 - 89) =      5.07901  eV     1   --> A              
     e( 90 - 90) =      5.15828  eV     1   --> A              
     e( 91 - 91) =      5.21667  eV     1   --> A              
     e( 92 - 92) =      5.50820  eV     1   --> A              
     e( 93 - 93) =      5.51962  eV     1   --> A              
     e( 94 - 94) =      5.59732  eV     1   --> A              
     e( 95 - 95) =      6.25333  eV     1   --> A              
     e( 96 - 96) =      6.45546  eV     1   --> A              
     e( 97 - 97) =      6.48908  eV     1   --> A              
     e( 98 - 98) =      6.55372  eV     1   --> A              
     e( 99 - 99) =      6.75861  eV     1   --> A              
     e(100 -100) =      6.91884  eV     1   --> A              
     e(101 -101) =      7.04917  eV     1   --> A              
     e(102 -102) =      7.12325  eV     1   --> A              
     e(103 -103) =      7.24424  eV     1   --> A              
     e(104 -104) =      7.27701  eV     1   --> A              
     e(105 -105) =      7.34679  eV     1   --> A              
     e(106 -106) =      7.47688  eV     1   --> A              
     e(107 -107) =      7.62337  eV     1   --> A              
     e(108 -108) =      7.75199  eV     1   --> A              
     e(109 -109) =      7.81935  eV     1   --> A              
     e(110 -110) =      7.97632  eV     1   --> A              
     e(111 -111) =      8.10802  eV     1   --> A              
     e(112 -112) =      8.26310  eV     1   --> A              
     e(113 -113) =      8.36850  eV     1   --> A              
     e(114 -114) =      8.47545  eV     1   --> A              
     e(115 -115) =      8.52515  eV     1   --> A              
     e(116 -116) =      8.61298  eV     1   --> A              
     e(117 -117) =      8.81795  eV     1   --> A              
     e(118 -118) =      8.89408  eV     1   --> A              
     e(119 -119) =      9.11371  eV     1   --> A              
     e(120 -120) =      9.20673  eV     1   --> A              
     e(121 -121) =      9.30801  eV     1   --> A              
     e(122 -122) =      9.46168  eV     1   --> A              
     e(123 -123) =      9.47433  eV     1   --> A              
     e(124 -124) =      9.55620  eV     1   --> A              
     e(125 -125) =      9.64975  eV     1   --> A              
     e(126 -126) =      9.67910  eV     1   --> A              
     e(127 -127) =      9.76320  eV     1   --> A              
     e(128 -128) =      9.98163  eV     1   --> A              
     e(129 -129) =     10.01680  eV     1   --> A              
     e(130 -130) =     10.03728  eV     1   --> A              
     e(131 -131) =     10.05876  eV     1   --> A              
     e(132 -132) =     10.13914  eV     1   --> A              
     e(133 -133) =     10.18731  eV     1   --> A              
     e(134 -134) =     10.25673  eV     1   --> A              
     e(135 -135) =     10.40571  eV     1   --> A              
     e(136 -136) =     10.52989  eV     1   --> A              
     e(137 -137) =     10.61042  eV     1   --> A              
     e(138 -138) =     10.75374  eV     1   --> A              
     e(139 -139) =     10.96663  eV     1   --> A              
     e(140 -140) =     11.11842  eV     1   --> A              
     e(141 -141) =     11.15829  eV     1   --> A              
     e(142 -142) =     11.22669  eV     1   --> A              
     e(143 -143) =     11.28120  eV     1   --> A              
     e(144 -144) =     11.38940  eV     1   --> A              
     e(145 -145) =     11.55589  eV     1   --> A              
     e(146 -146) =     11.88800  eV     1   --> A              
     e(147 -147) =     11.94311  eV     1   --> A              
     e(148 -148) =     13.70484  eV     1   --> A              
     e(149 -149) =     13.75997  eV     1   --> A              
     e(150 -150) =     13.86271  eV     1   --> A              
     e(151 -151) =     13.93849  eV     1   --> A              
     e(152 -152) =     14.01586  eV     1   --> A              
     e(153 -153) =     14.03685  eV     1   --> A              
     e(154 -154) =     14.09999  eV     1   --> A              
     e(155 -155) =     14.15813  eV     1   --> A              
     e(156 -156) =     14.16613  eV     1   --> A              
     e(157 -157) =     14.33343  eV     1   --> A              
     e(158 -158) =     14.36544  eV     1   --> A              
     e(159 -159) =     14.87950  eV     1   --> A              
     e(160 -160) =     14.97297  eV     1   --> A              
     e(161 -161) =     15.47984  eV     1   --> A              
     e(162 -162) =     15.56479  eV     1   --> A              
     e(163 -163) =     15.61014  eV     1   --> A              
     e(164 -164) =     15.78187  eV     1   --> A              
     e(165 -165) =     15.92828  eV     1   --> A              
     e(166 -166) =     16.06315  eV     1   --> A              
     e(167 -167) =     16.80985  eV     1   --> A              
     e(168 -168) =     16.99133  eV     1   --> A              
     e(169 -169) =     17.05751  eV     1   --> A              
     e(170 -170) =     17.11532  eV     1   --> A              
     e(171 -171) =     17.32218  eV     1   --> A              
     e(172 -172) =     17.37433  eV     1   --> A              
     e(173 -173) =     17.45854  eV     1   --> A              
     e(174 -174) =     17.47384  eV     1   --> A              
     e(175 -175) =     17.67455  eV     1   --> A              
     e(176 -176) =     17.80890  eV     1   --> A              

 **************************************************************************

 **************************************************************************

                    xk=(   0.20000,   0.11547,   0.00000  )

     Band symmetry, C_1 (1)     point group:

     e(  1 -  1) =    -79.47694  eV     1   --> A              
     e(  2 -  2) =    -79.28738  eV     1   --> A              
     e(  3 -  3) =    -79.23794  eV     1   --> A              
     e(  4 -  4) =    -74.19551  eV     1   --> A              
     e(  5 -  5) =    -74.07215  eV     1   --> A              
     e(  6 -  6) =    -74.05677  eV     1   --> A              
     e(  7 -  7) =    -45.46953  eV     1   --> A              
     e(  8 -  9) =    -45.41759  eV     2   -->   2 A              
     e( 10 - 11) =    -45.27645  eV     2   -->   2 A              
     e( 12 - 13) =    -45.23597  eV     2   -->   2 A              
     e( 14 - 15) =    -45.16766  eV     2   -->   2 A              
     e( 16 - 16) =    -40.33091  eV     1   --> A              
     e( 17 - 18) =    -40.28135  eV     2   -->   2 A              
     e( 19 - 19) =    -40.20882  eV     1   --> A              
     e( 20 - 20) =    -40.20689  eV     1   --> A              
     e( 21 - 22) =    -40.16224  eV     2   -->   2 A              
     e( 23 - 24) =    -40.14574  eV     2   -->   2 A              
     e( 25 - 25) =    -10.57302  eV     1   --> A              
     e( 26 - 26) =    -10.56452  eV     1   --> A              
     e( 27 - 27) =    -10.56094  eV     1   --> A              
     e( 28 - 28) =    -10.55284  eV     1   --> A              
     e( 29 - 29) =    -10.53773  eV     1   --> A              
     e( 30 - 30) =    -10.52956  eV     1   --> A              
     e( 31 - 31) =    -10.50324  eV     1   --> A              
     e( 32 - 32) =    -10.50215  eV     1   --> A              
     e( 33 - 33) =    -10.49515  eV     1   --> A              
     e( 34 - 34) =    -10.49403  eV     1   --> A              
     e( 35 - 35) =    -10.48421  eV     1   --> A              
     e( 36 - 36) =    -10.48317  eV     1   --> A              
     e( 37 - 37) =    -10.46879  eV     1   --> A              
     e( 38 - 38) =    -10.46834  eV     1   --> A              
     e( 39 - 39) =    -10.44001  eV     1   --> A              
     e( 40 - 40) =    -10.43157  eV     1   --> A              
     e( 41 - 41) =    -10.41878  eV     1   --> A              
     e( 42 - 42) =    -10.41785  eV     1   --> A              
     e( 43 - 43) =    -10.41278  eV     1   --> A              
     e( 44 - 44) =    -10.41200  eV     1   --> A              
     e( 45 - 45) =    -10.40174  eV     1   --> A              
     e( 46 - 46) =    -10.39850  eV     1   --> A              
     e( 47 - 47) =    -10.39352  eV     1   --> A              
     e( 48 - 48) =    -10.39210  eV     1   --> A              
     e( 49 - 49) =    -10.38946  eV     1   --> A              
     e( 50 - 50) =    -10.38421  eV     1   --> A              
     e( 51 - 51) =    -10.36437  eV     1   --> A              
     e( 52 - 52) =    -10.35990  eV     1   --> A              
     e( 53 - 53) =    -10.35746  eV     1   --> A              
     e( 54 - 54) =    -10.35288  eV     1   --> A              
     e( 55 - 55) =     -7.13857  eV     1   --> A              
     e( 56 - 56) =     -6.76954  eV     1   --> A              
     e( 57 - 57) =     -6.65397  eV     1   --> A              
     e( 58 - 58) =     -5.93625  eV     1   --> A              
     e( 59 - 59) =     -5.85553  eV     1   --> A              
     e( 60 - 60) =     -5.63350  eV     1   --> A              
     e( 61 - 61) =     -5.59633  eV     1   --> A              
     e( 62 - 62) =     -5.53451  eV     1   --> A              
     e( 63 - 63) =     -5.48214  eV     1   --> A              
     e( 64 - 64) =     -5.40920  eV     1   --> A              
     e( 65 - 65) =     -5.38723  eV     1   --> A              
     e( 66 - 66) =     -5.34943  eV     1   --> A              
     e( 67 - 67) =     -5.26908  eV     1   --> A              
     e( 68 - 68) =     -5.22808  eV     1   --> A              
     e( 69 - 69) =     -5.05357  eV     1   --> A              
     e( 70 - 70) =     -5.03065  eV     1   --> A              
     e( 71 - 71) =     -4.86103  eV     1   --> A              
     e( 72 - 72) =     -4.83464  eV     1   --> A              
     e( 73 - 73) =      1.61197  eV     1   --> A              
     e( 74 - 74) =      1.73051  eV     1   --> A              
     e( 75 - 75) =      1.81631  eV     1   --> A              
     e( 76 - 76) =      2.37445  eV     1   --> A              
     e( 77 - 77) =      2.50265  eV     1   --> A              
     e( 78 - 78) =      3.03396  eV     1   --> A              
     e( 79 - 79) =      4.18275  eV     1   --> A              
     e( 80 - 80) =      4.21094  eV     1   --> A              
     e( 81 - 81) =      4.41239  eV     1   --> A              
     e( 82 - 82) =      4.41877  eV     1   --> A              
     e( 83 - 83) =      4.66667  eV     1   --> A              
     e( 84 - 84) =      4.75036  eV     1   --> A              
     e( 85 - 85) =      4.81849  eV     1   --> A              
     e( 86 - 86) =      4.85772  eV     1   --> A              
     e( 87 - 87) =      4.87357  eV     1   --> A              
     e( 88 - 88) =      5.04078  eV     1   --> A              
     e( 89 - 89) =      5.08513  eV     1   --> A              
     e( 90 - 90) =      5.17282  eV     1   --> A              
     e( 91 - 91) =      5.23134  eV     1   --> A              
     e( 92 - 92) =      5.48521  eV     1   --> A              
     e( 93 - 93) =      5.53410  eV     1   --> A              
     e( 94 - 94) =      5.67587  eV     1   --> A              
     e( 95 - 95) =      6.30507  eV     1   --> A              
     e( 96 - 96) =      6.48880  eV     1   --> A              
     e( 97 - 97) =      6.54829  eV     1   --> A              
     e( 98 - 98) =      6.65549  eV     1   --> A              
     e( 99 - 99) =      6.83189  eV     1   --> A              
     e(100 -100) =      7.00569  eV     1   --> A              
     e(101 -101) =      7.08713  eV     1   --> A              
     e(102 -102) =      7.20030  eV     1   --> A              
     e(103 -103) =      7.28034  eV     1   --> A              
     e(104 -104) =      7.29788  eV     1   --> A              
     e(105 -105) =      7.43497  eV     1   --> A              
     e(106 -106) =      7.51225  eV     1   --> A              
     e(107 -107) =      7.67174  eV     1   --> A              
     e(108 -108) =      7.77750  eV     1   --> A              
     e(109 -109) =      7.89511  eV     1   --> A              
     e(110 -110) =      8.02970  eV     1   --> A              
     e(111 -111) =      8.12975  eV     1   --> A              
     e(112 -112) =      8.31880  eV     1   --> A              
     e(113 -113) =      8.37279  eV     1   --> A              
     e(114 -114) =      8.48553  eV     1   --> A              
     e(115 -115) =      8.60543  eV     1   --> A              
     e(116 -116) =      8.65755  eV     1   --> A              
     e(117 -117) =      8.80449  eV     1   --> A              
     e(118 -118) =      8.90835  eV     1   --> A              
     e(119 -119) =      9.08525  eV     1   --> A              
     e(120 -120) =      9.20519  eV     1   --> A              
     e(121 -121) =      9.33320  eV     1   --> A              
     e(122 -122) =      9.39769  eV     1   --> A              
     e(123 -123) =      9.45480  eV     1   --> A              
     e(124 -124) =      9.52690  eV     1   --> A              
     e(125 -125) =      9.64788  eV     1   --> A              
     e(126 -126) =      9.68258  eV     1   --> A              
     e(127 -127) =      9.72557  eV     1   --> A              
     e(128 -128) =      9.89776  eV     1   --> A              
     e(129 -129) =      9.94700  eV     1   --> A              
     e(130 -130) =      9.96779  eV     1   --> A              
     e(131 -131) =     10.00686  eV     1   --> A              
     e(132 -132) =     10.10874  eV     1   --> A              
     e(133 -133) =     10.14364  eV     1   --> A              
     e(134 -134) =     10.17037  eV     1   --> A              
     e(135 -135) =     10.36960  eV     1   --> A              
     e(136 -136) =     10.47419  eV     1   --> A              
     e(137 -137) =     10.54433  eV     1   --> A              
     e(138 -138) =     10.71902  eV     1   --> A              
     e(139 -139) =     10.95593  eV     1   --> A              
     e(140 -140) =     11.10567  eV     1   --> A              
     e(141 -141) =     11.17151  eV     1   --> A              
     e(142 -142) =     11.21483  eV     1   --> A              
     e(143 -143) =     11.30528  eV     1   --> A              
     e(144 -144) =     11.44909  eV     1   --> A              
     e(145 -145) =     11.58223  eV     1   --> A              
     e(146 -146) =     11.85150  eV     1   --> A              
     e(147 -147) =     11.94332  eV     1   --> A              
     e(148 -148) =     13.69647  eV     1   --> A              
     e(149 -149) =     13.77349  eV     1   --> A              
     e(150 -150) =     13.83908  eV     1   --> A              
     e(151 -151) =     13.95510  eV     1   --> A              
     e(152 -152) =     14.03085  eV     1   --> A              
     e(153 -153) =     14.04347  eV     1   --> A              
     e(154 -154) =     14.12050  eV     1   --> A              
     e(155 -155) =     14.15231  eV     1   --> A              
     e(156 -156) =     14.17327  eV     1   --> A              
     e(157 -157) =     14.35131  eV     1   --> A              
     e(158 -158) =     14.40577  eV     1   --> A              
     e(159 -159) =     14.80989  eV     1   --> A              
     e(160 -160) =     14.96320  eV     1   --> A              
     e(161 -161) =     15.38155  eV     1   --> A              
     e(162 -162) =     15.50314  eV     1   --> A              
     e(163 -163) =     15.59534  eV     1   --> A              
     e(164 -164) =     15.75773  eV     1   --> A              
     e(165 -165) =     15.92894  eV     1   --> A              
     e(166 -166) =     16.07993  eV     1   --> A              
     e(167 -167) =     16.58055  eV     1   --> A              
     e(168 -168) =     16.84884  eV     1   --> A              
     e(169 -169) =     16.92267  eV     1   --> A              
     e(170 -170) =     16.97854  eV     1   --> A              
     e(171 -171) =     17.23182  eV     1   --> A              
     e(172 -172) =     17.33471  eV     1   --> A              
     e(173 -173) =     17.38594  eV     1   --> A              
     e(174 -174) =     17.46983  eV     1   --> A              
     e(175 -175) =     17.49750  eV     1   --> A              
     e(176 -176) =     17.80469  eV     1   --> A              

 **************************************************************************

 **************************************************************************

                    xk=(   0.25000,   0.14434,   0.00000  )

     Band symmetry, C_1 (1)     point group:

     e(  1 -  1) =    -79.47694  eV     1   --> A              
     e(  2 -  2) =    -79.28738  eV     1   --> A              
     e(  3 -  3) =    -79.23794  eV     1   --> A              
     e(  4 -  4) =    -74.19551  eV     1   --> A              
     e(  5 -  5) =    -74.07214  eV     1   --> A              
     e(  6 -  6) =    -74.05677  eV     1   --> A              
     e(  7 -  7) =    -45.46953  eV     1   --> A              
     e(  8 -  9) =    -45.41759  eV     2   -->   2 A              
     e( 10 - 11) =    -45.27645  eV     2   -->   2 A              
     e( 12 - 13) =    -45.23597  eV     2   -->   2 A              
     e( 14 - 15) =    -45.16766  eV     2   -->   2 A              
     e( 16 - 16) =    -40.33091  eV     1   --> A              
     e( 17 - 18) =    -40.28135  eV     2   -->   2 A              
     e( 19 - 19) =    -40.20882  eV     1   --> A              
     e( 20 - 20) =    -40.20689  eV     1   --> A              
     e( 21 - 22) =    -40.16223  eV     2   -->   2 A              
     e( 23 - 24) =    -40.14573  eV     2   -->   2 A              
     e( 25 - 25) =    -10.57129  eV     1   --> A              
     e( 26 - 26) =    -10.56250  eV     1   --> A              
     e( 27 - 27) =    -10.55886  eV     1   --> A              
     e( 28 - 28) =    -10.54997  eV     1   --> A              
     e( 29 - 29) =    -10.53701  eV     1   --> A              
     e( 30 - 30) =    -10.52882  eV     1   --> A              
     e( 31 - 31) =    -10.50233  eV     1   --> A              
     e( 32 - 32) =    -10.50054  eV     1   --> A              
     e( 33 - 33) =    -10.49371  eV     1   --> A              
     e( 34 - 34) =    -10.49192  eV     1   --> A              
     e( 35 - 35) =    -10.48131  eV     1   --> A              
     e( 36 - 36) =    -10.48013  eV     1   --> A              
     e( 37 - 37) =    -10.46967  eV     1   --> A              
     e( 38 - 38) =    -10.46902  eV     1   --> A              
     e( 39 - 39) =    -10.43942  eV     1   --> A              
     e( 40 - 40) =    -10.43150  eV     1   --> A              
     e( 41 - 41) =    -10.41947  eV     1   --> A              
     e( 42 - 42) =    -10.41775  eV     1   --> A              
     e( 43 - 43) =    -10.41329  eV     1   --> A              
     e( 44 - 44) =    -10.41219  eV     1   --> A              
     e( 45 - 45) =    -10.40373  eV     1   --> A              
     e( 46 - 46) =    -10.39951  eV     1   --> A              
     e( 47 - 47) =    -10.39507  eV     1   --> A              
     e( 48 - 48) =    -10.39204  eV     1   --> A              
     e( 49 - 49) =    -10.38992  eV     1   --> A              
     e( 50 - 50) =    -10.38392  eV     1   --> A              
     e( 51 - 51) =    -10.36705  eV     1   --> A              
     e( 52 - 52) =    -10.36123  eV     1   --> A              
     e( 53 - 53) =    -10.35923  eV     1   --> A              
     e( 54 - 54) =    -10.35374  eV     1   --> A              
     e( 55 - 55) =     -7.06547  eV     1   --> A              
     e( 56 - 56) =     -6.71193  eV     1   --> A              
     e( 57 - 57) =     -6.59398  eV     1   --> A              
     e( 58 - 58) =     -5.97883  eV     1   --> A              
     e( 59 - 59) =     -5.85324  eV     1   --> A              
     e( 60 - 60) =     -5.66738  eV     1   --> A              
     e( 61 - 61) =     -5.61453  eV     1   --> A              
     e( 62 - 62) =     -5.56704  eV     1   --> A              
     e( 63 - 63) =     -5.49760  eV     1   --> A              
     e( 64 - 64) =     -5.43539  eV     1   --> A              
     e( 65 - 65) =     -5.40584  eV     1   --> A              
     e( 66 - 66) =     -5.37525  eV     1   --> A              
     e( 67 - 67) =     -5.28357  eV     1   --> A              
     e( 68 - 68) =     -5.23621  eV     1   --> A              
     e( 69 - 69) =     -5.07109  eV     1   --> A              
     e( 70 - 70) =     -5.04487  eV     1   --> A              
     e( 71 - 71) =     -4.87519  eV     1   --> A              
     e( 72 - 72) =     -4.83676  eV     1   --> A              
     e( 73 - 73) =      1.59849  eV     1   --> A              
     e( 74 - 74) =      1.71163  eV     1   --> A              
     e( 75 - 75) =      1.83339  eV     1   --> A              
     e( 76 - 76) =      2.29485  eV     1   --> A              
     e( 77 - 77) =      2.46036  eV     1   --> A              
     e( 78 - 78) =      2.87547  eV     1   --> A              
     e( 79 - 79) =      4.18452  eV     1   --> A              
     e( 80 - 80) =      4.21669  eV     1   --> A              
     e( 81 - 81) =      4.44982  eV     1   --> A              
     e( 82 - 82) =      4.47049  eV     1   --> A              
     e( 83 - 83) =      4.65744  eV     1   --> A              
     e( 84 - 84) =      4.78036  eV     1   --> A              
     e( 85 - 85) =      4.79078  eV     1   --> A              
     e( 86 - 86) =      4.87261  eV     1   --> A              
     e( 87 - 87) =      4.88753  eV     1   --> A              
     e( 88 - 88) =      5.05753  eV     1   --> A              
     e( 89 - 89) =      5.08857  eV     1   --> A              
     e( 90 - 90) =      5.19089  eV     1   --> A              
     e( 91 - 91) =      5.24847  eV     1   --> A              
     e( 92 - 92) =      5.44696  eV     1   --> A              
     e( 93 - 93) =      5.55604  eV     1   --> A              
     e( 94 - 94) =      5.77237  eV     1   --> A              
     e( 95 - 95) =      6.36816  eV     1   --> A              
     e( 96 - 96) =      6.52401  eV     1   --> A              
     e( 97 - 97) =      6.59921  eV     1   --> A              
     e( 98 - 98) =      6.76579  eV     1   --> A              
     e( 99 - 99) =      6.92576  eV     1   --> A              
     e(100 -100) =      7.05630  eV     1   --> A              
     e(101 -101) =      7.15566  eV     1   --> A              
     e(102 -102) =      7.28474  eV     1   --> A              
     e(103 -103) =      7.30704  eV     1   --> A              
     e(104 -104) =      7.34678  eV     1   --> A              
     e(105 -105) =      7.50873  eV     1   --> A              
     e(106 -106) =      7.56465  eV     1   --> A              
     e(107 -107) =      7.73695  eV     1   --> A              
     e(108 -108) =      7.82189  eV     1   --> A              
     e(109 -109) =      7.95685  eV     1   --> A              
     e(110 -110) =      8.08329  eV     1   --> A              
     e(111 -111) =      8.16779  eV     1   --> A              
     e(112 -112) =      8.27947  eV     1   --> A              
     e(113 -113) =      8.45917  eV     1   --> A              
     e(114 -114) =      8.48980  eV     1   --> A              
     e(115 -115) =      8.64997  eV     1   --> A              
     e(116 -116) =      8.70610  eV     1   --> A              
     e(117 -117) =      8.82650  eV     1   --> A              
     e(118 -118) =      8.93360  eV     1   --> A              
     e(119 -119) =      9.04369  eV     1   --> A              
     e(120 -120) =      9.16867  eV     1   --> A              
     e(121 -121) =      9.29080  eV     1   --> A              
     e(122 -122) =      9.37460  eV     1   --> A              
     e(123 -123) =      9.42469  eV     1   --> A              
     e(124 -124) =      9.52144  eV     1   --> A              
     e(125 -125) =      9.65546  eV     1   --> A              
     e(126 -126) =      9.67582  eV     1   --> A              
     e(127 -127) =      9.73666  eV     1   --> A              
     e(128 -128) =      9.81134  eV     1   --> A              
     e(129 -129) =      9.87792  eV     1   --> A              
     e(130 -130) =      9.93017  eV     1   --> A              
     e(131 -131) =      9.95122  eV     1   --> A              
     e(132 -132) =     10.05906  eV     1   --> A              
     e(133 -133) =     10.09508  eV     1   --> A              
     e(134 -134) =     10.14082  eV     1   --> A              
     e(135 -135) =     10.32016  eV     1   --> A              
     e(136 -136) =     10.41015  eV     1   --> A              
     e(137 -137) =     10.51402  eV     1   --> A              
     e(138 -138) =     10.69814  eV     1   --> A              
     e(139 -139) =     10.92722  eV     1   --> A              
     e(140 -140) =     11.06136  eV     1   --> A              
     e(141 -141) =     11.15239  eV     1   --> A              
     e(142 -142) =     11.21245  eV     1   --> A              
     e(143 -143) =     11.33902  eV     1   --> A              
     e(144 -144) =     11.49396  eV     1   --> A              
     e(145 -145) =     11.56195  eV     1   --> A              
     e(146 -146) =     11.81102  eV     1   --> A              
     e(147 -147) =     11.94203  eV     1   --> A              
     e(148 -148) =     13.69335  eV     1   --> A              
     e(149 -149) =     13.78710  eV     1   --> A              
     e(150 -150) =     13.82272  eV     1   --> A              
     e(151 -151) =     13.95673  eV     1   --> A              
     e(152 -152) =     14.03213  eV     1   --> A              
     e(153 -153) =     14.05974  eV     1   --> A              
     e(154 -154) =     14.12765  eV     1   --> A              
     e(155 -155) =     14.16287  eV     1   --> A              
     e(156 -156) =     14.18465  eV     1   --> A              
     e(157 -157) =     14.37485  eV     1   --> A              
     e(158 -158) =     14.44988  eV     1   --> A              
     e(159 -159) =     14.72954  eV     1   --> A              
     e(160 -160) =     14.95084  eV     1   --> A              
     e(161 -161) =     15.26924  eV     1   --> A              
     e(162 -162) =     15.42151  eV     1   --> A              
     e(163 -163) =     15.57797  eV     1   --> A              
     e(164 -164) =     15.74985  eV     1   --> A              
     e(165 -165) =     15.91945  eV     1   --> A              
     e(166 -166) =     16.10722  eV     1   --> A              
     e(167 -167) =     16.36216  eV     1   --> A              
     e(168 -168) =     16.65487  eV     1   --> A              
     e(169 -169) =     16.77708  eV     1   --> A              
     e(170 -170) =     16.80734  eV     1   --> A              
     e(171 -171) =     17.20541  eV     1   --> A              
     e(172 -172) =     17.26433  eV     1   --> A              
     e(173 -173) =     17.29028  eV     1   --> A              
     e(174 -174) =     17.36516  eV     1   --> A              
     e(175 -175) =     17.44815  eV     1   --> A              
     e(176 -176) =     17.73888  eV     1   --> A              

 **************************************************************************

 **************************************************************************

                    xk=(   0.30000,   0.17321,   0.00000  )

     Band symmetry, C_1 (1)     point group:

     e(  1 -  1) =    -79.47694  eV     1   --> A              
     e(  2 -  2) =    -79.28738  eV     1   --> A              
     e(  3 -  3) =    -79.23794  eV     1   --> A              
     e(  4 -  4) =    -74.19551  eV     1   --> A              
     e(  5 -  5) =    -74.07214  eV     1   --> A              
     e(  6 -  6) =    -74.05677  eV     1   --> A              
     e(  7 -  7) =    -45.46953  eV     1   --> A              
     e(  8 -  9) =    -45.41759  eV     2   -->   2 A              
     e( 10 - 11) =    -45.27645  eV     2   -->   2 A              
     e( 12 - 13) =    -45.23597  eV     2   -->   2 A              
     e( 14 - 15) =    -45.16766  eV     2   -->   2 A              
     e( 16 - 16) =    -40.33091  eV     1   --> A              
     e( 17 - 18) =    -40.28135  eV     2   -->   2 A              
     e( 19 - 19) =    -40.20882  eV     1   --> A              
     e( 20 - 20) =    -40.20689  eV     1   --> A              
     e( 21 - 22) =    -40.16223  eV     2   -->   2 A              
     e( 23 - 24) =    -40.14573  eV     2   -->   2 A              
     e( 25 - 25) =    -10.57108  eV     1   --> A              
     e( 26 - 26) =    -10.56224  eV     1   --> A              
     e( 27 - 27) =    -10.55373  eV     1   --> A              
     e( 28 - 28) =    -10.54585  eV     1   --> A              
     e( 29 - 29) =    -10.53639  eV     1   --> A              
     e( 30 - 30) =    -10.52818  eV     1   --> A              
     e( 31 - 31) =    -10.50325  eV     1   --> A              
     e( 32 - 32) =    -10.49903  eV     1   --> A              
     e( 33 - 33) =    -10.49178  eV     1   --> A              
     e( 34 - 34) =    -10.48972  eV     1   --> A              
     e( 35 - 35) =    -10.47864  eV     1   --> A              
     e( 36 - 36) =    -10.47721  eV     1   --> A              
     e( 37 - 37) =    -10.46995  eV     1   --> A              
     e( 38 - 38) =    -10.46913  eV     1   --> A              
     e( 39 - 39) =    -10.43931  eV     1   --> A              
     e( 40 - 40) =    -10.43144  eV     1   --> A              
     e( 41 - 41) =    -10.42079  eV     1   --> A              
     e( 42 - 42) =    -10.41813  eV     1   --> A              
     e( 43 - 43) =    -10.41301  eV     1   --> A              
     e( 44 - 44) =    -10.41184  eV     1   --> A              
     e( 45 - 45) =    -10.40602  eV     1   --> A              
     e( 46 - 46) =    -10.40109  eV     1   --> A              
     e( 47 - 47) =    -10.39690  eV     1   --> A              
     e( 48 - 48) =    -10.39173  eV     1   --> A              
     e( 49 - 49) =    -10.39034  eV     1   --> A              
     e( 50 - 50) =    -10.38367  eV     1   --> A              
     e( 51 - 51) =    -10.37012  eV     1   --> A              
     e( 52 - 52) =    -10.36379  eV     1   --> A              
     e( 53 - 53) =    -10.36039  eV     1   --> A              
     e( 54 - 54) =    -10.35406  eV     1   --> A              
     e( 55 - 55) =     -6.97893  eV     1   --> A              
     e( 56 - 56) =     -6.64682  eV     1   --> A              
     e( 57 - 57) =     -6.52421  eV     1   --> A              
     e( 58 - 58) =     -6.05061  eV     1   --> A              
     e( 59 - 59) =     -5.85792  eV     1   --> A              
     e( 60 - 60) =     -5.71386  eV     1   --> A              
     e( 61 - 61) =     -5.63465  eV     1   --> A              
     e( 62 - 62) =     -5.58026  eV     1   --> A              
     e( 63 - 63) =     -5.51703  eV     1   --> A              
     e( 64 - 64) =     -5.46234  eV     1   --> A              
     e( 65 - 65) =     -5.42376  eV     1   --> A              
     e( 66 - 66) =     -5.39531  eV     1   --> A              
     e( 67 - 67) =     -5.29608  eV     1   --> A              
     e( 68 - 68) =     -5.25364  eV     1   --> A              
     e( 69 - 69) =     -5.08260  eV     1   --> A              
     e( 70 - 70) =     -5.05549  eV     1   --> A              
     e( 71 - 71) =     -4.89141  eV     1   --> A              
     e( 72 - 72) =     -4.84021  eV     1   --> A              
     e( 73 - 73) =      1.58240  eV     1   --> A              
     e( 74 - 74) =      1.70235  eV     1   --> A              
     e( 75 - 75) =      1.86556  eV     1   --> A              
     e( 76 - 76) =      2.20388  eV     1   --> A              
     e( 77 - 77) =      2.42616  eV     1   --> A              
     e( 78 - 78) =      2.71808  eV     1   --> A              
     e( 79 - 79) =      4.18593  eV     1   --> A              
     e( 80 - 80) =      4.22969  eV     1   --> A              
     e( 81 - 81) =      4.47228  eV     1   --> A              
     e( 82 - 82) =      4.49345  eV     1   --> A              
     e( 83 - 83) =      4.67322  eV     1   --> A              
     e( 84 - 84) =      4.74425  eV     1   --> A              
     e( 85 - 85) =      4.83151  eV     1   --> A              
     e( 86 - 86) =      4.88114  eV     1   --> A              
     e( 87 - 87) =      4.92251  eV     1   --> A              
     e( 88 - 88) =      5.05588  eV     1   --> A              
     e( 89 - 89) =      5.10123  eV     1   --> A              
     e( 90 - 90) =      5.20538  eV     1   --> A              
     e( 91 - 91) =      5.27502  eV     1   --> A              
     e( 92 - 92) =      5.40380  eV     1   --> A              
     e( 93 - 93) =      5.57908  eV     1   --> A              
     e( 94 - 94) =      5.88095  eV     1   --> A              
     e( 95 - 95) =      6.44223  eV     1   --> A              
     e( 96 - 96) =      6.55714  eV     1   --> A              
     e( 97 - 97) =      6.64377  eV     1   --> A              
     e( 98 - 98) =      6.86285  eV     1   --> A              
     e( 99 - 99) =      7.00887  eV     1   --> A              
     e(100 -100) =      7.09577  eV     1   --> A              
     e(101 -101) =      7.25558  eV     1   --> A              
     e(102 -102) =      7.29446  eV     1   --> A              
     e(103 -103) =      7.36444  eV     1   --> A              
     e(104 -104) =      7.39848  eV     1   --> A              
     e(105 -105) =      7.55310  eV     1   --> A              
     e(106 -106) =      7.66538  eV     1   --> A              
     e(107 -107) =      7.78761  eV     1   --> A              
     e(108 -108) =      7.89955  eV     1   --> A              
     e(109 -109) =      7.98579  eV     1   --> A              
     e(110 -110) =      8.12609  eV     1   --> A              
     e(111 -111) =      8.19418  eV     1   --> A              
     e(112 -112) =      8.30162  eV     1   --> A              
     e(113 -113) =      8.46137  eV     1   --> A              
     e(114 -114) =      8.56863  eV     1   --> A              
     e(115 -115) =      8.66260  eV     1   --> A              
     e(116 -116) =      8.72574  eV     1   --> A              
     e(117 -117) =      8.87860  eV     1   --> A              
     e(118 -118) =      8.90750  eV     1   --> A              
     e(119 -119) =      8.97962  eV     1   --> A              
     e(120 -120) =      9.16975  eV     1   --> A              
     e(121 -121) =      9.20575  eV     1   --> A              
     e(122 -122) =      9.29420  eV     1   --> A              
     e(123 -123) =      9.44728  eV     1   --> A              
     e(124 -124) =      9.55184  eV     1   --> A              
     e(125 -125) =      9.62895  eV     1   --> A              
     e(126 -126) =      9.69140  eV     1   --> A              
     e(127 -127) =      9.73610  eV     1   --> A              
     e(128 -128) =      9.78203  eV     1   --> A              
     e(129 -129) =      9.84196  eV     1   --> A              
     e(130 -130) =      9.89435  eV     1   --> A              
     e(131 -131) =      9.93497  eV     1   --> A              
     e(132 -132) =     10.01354  eV     1   --> A              
     e(133 -133) =     10.07296  eV     1   --> A              
     e(134 -134) =     10.13361  eV     1   --> A              
     e(135 -135) =     10.27372  eV     1   --> A              
     e(136 -136) =     10.35930  eV     1   --> A              
     e(137 -137) =     10.49818  eV     1   --> A              
     e(138 -138) =     10.68761  eV     1   --> A              
     e(139 -139) =     10.88970  eV     1   --> A              
     e(140 -140) =     10.99537  eV     1   --> A              
     e(141 -141) =     11.12673  eV     1   --> A              
     e(142 -142) =     11.20001  eV     1   --> A              
     e(143 -143) =     11.36877  eV     1   --> A              
     e(144 -144) =     11.48931  eV     1   --> A              
     e(145 -145) =     11.52652  eV     1   --> A              
     e(146 -146) =     11.76178  eV     1   --> A              
     e(147 -147) =     11.93749  eV     1   --> A              
     e(148 -148) =     13.69319  eV     1   --> A              
     e(149 -149) =     13.79157  eV     1   --> A              
     e(150 -150) =     13.82407  eV     1   --> A              
     e(151 -151) =     13.94920  eV     1   --> A              
     e(152 -152) =     14.02499  eV     1   --> A              
     e(153 -153) =     14.07799  eV     1   --> A              
     e(154 -154) =     14.12229  eV     1   --> A              
     e(155 -155) =     14.17755  eV     1   --> A              
     e(156 -156) =     14.20037  eV     1   --> A              
     e(157 -157) =     14.40435  eV     1   --> A              
     e(158 -158) =     14.49405  eV     1   --> A              
     e(159 -159) =     14.64176  eV     1   --> A              
     e(160 -160) =     14.93608  eV     1   --> A              
     e(161 -161) =     15.15135  eV     1   --> A              
     e(162 -162) =     15.34643  eV     1   --> A              
     e(163 -163) =     15.55480  eV     1   --> A              
     e(164 -164) =     15.75627  eV     1   --> A              
     e(165 -165) =     15.90668  eV     1   --> A              
     e(166 -166) =     16.13071  eV     1   --> A              
     e(167 -167) =     16.17987  eV     1   --> A              
     e(168 -168) =     16.44564  eV     1   --> A              
     e(169 -169) =     16.62978  eV     1   --> A              
     e(170 -170) =     16.63917  eV     1   --> A              
     e(171 -171) =     16.97923  eV     1   --> A              
     e(172 -172) =     17.23514  eV     1   --> A              
     e(173 -173) =     17.29481  eV     1   --> A              
     e(174 -174) =     17.35902  eV     1   --> A              
     e(175 -175) =     17.38343  eV     1   --> A              
     e(176 -176) =     17.65820  eV     1   --> A              

 **************************************************************************

 **************************************************************************

                    xk=(   0.35000,   0.20207,   0.00000  )

     Band symmetry, C_1 (1)     point group:

     e(  1 -  1) =    -79.47694  eV     1   --> A              
     e(  2 -  2) =    -79.28738  eV     1   --> A              
     e(  3 -  3) =    -79.23794  eV     1   --> A              
     e(  4 -  4) =    -74.19551  eV     1   --> A              
     e(  5 -  5) =    -74.07214  eV     1   --> A              
     e(  6 -  6) =    -74.05677  eV     1   --> A              
     e(  7 -  7) =    -45.46953  eV     1   --> A              
     e(  8 -  9) =    -45.41759  eV     2   -->   2 A              
     e( 10 - 11) =    -45.27645  eV     2   -->   2 A              
     e( 12 - 13) =    -45.23597  eV     2   -->   2 A              
     e( 14 - 15) =    -45.16766  eV     2   -->   2 A              
     e( 16 - 16) =    -40.33091  eV     1   --> A              
     e( 17 - 18) =    -40.28135  eV     2   -->   2 A              
     e( 19 - 19) =    -40.20882  eV     1   --> A              
     e( 20 - 20) =    -40.20689  eV     1   --> A              
     e( 21 - 22) =    -40.16223  eV     2   -->   2 A              
     e( 23 - 24) =    -40.14573  eV     2   -->   2 A              
     e( 25 - 25) =    -10.57215  eV     1   --> A              
     e( 26 - 26) =    -10.56025  eV     1   --> A              
     e( 27 - 27) =    -10.54916  eV     1   --> A              
     e( 28 - 28) =    -10.54126  eV     1   --> A              
     e( 29 - 29) =    -10.53603  eV     1   --> A              
     e( 30 - 30) =    -10.52781  eV     1   --> A              
     e( 31 - 31) =    -10.50510  eV     1   --> A              
     e( 32 - 32) =    -10.49711  eV     1   --> A              
     e( 33 - 33) =    -10.49004  eV     1   --> A              
     e( 34 - 34) =    -10.48763  eV     1   --> A              
     e( 35 - 35) =    -10.47680  eV     1   --> A              
     e( 36 - 36) =    -10.47525  eV     1   --> A              
     e( 37 - 37) =    -10.46908  eV     1   --> A              
     e( 38 - 38) =    -10.46836  eV     1   --> A              
     e( 39 - 39) =    -10.43977  eV     1   --> A              
     e( 40 - 40) =    -10.43153  eV     1   --> A              
     e( 41 - 41) =    -10.42233  eV     1   --> A              
     e( 42 - 42) =    -10.41861  eV     1   --> A              
     e( 43 - 43) =    -10.41250  eV     1   --> A              
     e( 44 - 44) =    -10.41123  eV     1   --> A              
     e( 45 - 45) =    -10.40794  eV     1   --> A              
     e( 46 - 46) =    -10.40272  eV     1   --> A              
     e( 47 - 47) =    -10.39859  eV     1   --> A              
     e( 48 - 48) =    -10.39152  eV     1   --> A              
     e( 49 - 49) =    -10.39060  eV     1   --> A              
     e( 50 - 50) =    -10.38343  eV     1   --> A              
     e( 51 - 51) =    -10.37305  eV     1   --> A              
     e( 52 - 52) =    -10.36643  eV     1   --> A              
     e( 53 - 53) =    -10.36172  eV     1   --> A              
     e( 54 - 54) =    -10.35391  eV     1   --> A              
     e( 55 - 55) =     -6.88095  eV     1   --> A              
[...]
     e(166 -166) =     16.05676  eV     1   --> A              
     e(167 -167) =     16.96302  eV     1   --> A              
     e(168 -168) =     17.08724  eV     1   --> A              
     e(169 -169) =     17.10469  eV     1   --> A              
     e(170 -170) =     17.19033  eV     1   --> A              
     e(171 -171) =     17.40751  eV     1   --> A              
     e(172 -172) =     17.41391  eV     1   --> A              
     e(173 -173) =     17.49008  eV     1   --> A              
     e(174 -174) =     17.50037  eV     1   --> A              
     e(175 -175) =     17.74075  eV     1   --> A              
     e(176 -176) =     17.79225  eV     1   --> A              

 **************************************************************************

 **************************************************************************

                    xk=(   0.06667,   0.00000,   0.00000  )

     Band symmetry, C_1 (1)     point group:

     e(  1 -  1) =    -79.47693  eV     1   --> A              
     e(  2 -  2) =    -79.28738  eV     1   --> A              
     e(  3 -  3) =    -79.23794  eV     1   --> A              
     e(  4 -  4) =    -74.19551  eV     1   --> A              
     e(  5 -  5) =    -74.07214  eV     1   --> A              
     e(  6 -  6) =    -74.05677  eV     1   --> A              
     e(  7 -  7) =    -45.46953  eV     1   --> A              
     e(  8 -  9) =    -45.41759  eV     2   -->   2 A              
     e( 10 - 11) =    -45.27645  eV     2   -->   2 A              
     e( 12 - 13) =    -45.23596  eV     2   -->   2 A              
     e( 14 - 15) =    -45.16766  eV     2   -->   2 A              
     e( 16 - 16) =    -40.33091  eV     1   --> A              
     e( 17 - 18) =    -40.28135  eV     2   -->   2 A              
     e( 19 - 19) =    -40.20882  eV     1   --> A              
     e( 20 - 20) =    -40.20689  eV     1   --> A              
     e( 21 - 22) =    -40.16223  eV     2   -->   2 A              
     e( 23 - 24) =    -40.14573  eV     2   -->   2 A              
     e( 25 - 25) =    -10.57737  eV     1   --> A              
     e( 26 - 26) =    -10.57656  eV     1   --> A              
     e( 27 - 27) =    -10.55529  eV     1   --> A              
     e( 28 - 28) =    -10.55482  eV     1   --> A              
     e( 29 - 29) =    -10.53888  eV     1   --> A              
     e( 30 - 30) =    -10.53055  eV     1   --> A              
     e( 31 - 31) =    -10.51040  eV     1   --> A              
     e( 32 - 32) =    -10.51023  eV     1   --> A              
     e( 33 - 34) =    -10.49573  eV     2   -->   2 A              
     e( 35 - 35) =    -10.48875  eV     1   --> A              
     e( 36 - 36) =    -10.48858  eV     1   --> A              
     e( 37 - 38) =    -10.46631  eV     2   -->   2 A              
     e( 39 - 39) =    -10.44195  eV     1   --> A              
     e( 40 - 40) =    -10.43123  eV     1   --> A              
     e( 41 - 42) =    -10.41874  eV     2   -->   2 A              
     e( 43 - 44) =    -10.40903  eV     2   -->   2 A              
     e( 45 - 45) =    -10.39902  eV     1   --> A              
     e( 46 - 46) =    -10.39872  eV     1   --> A              
     e( 47 - 47) =    -10.39379  eV     1   --> A              
     e( 48 - 48) =    -10.38836  eV     1   --> A              
     e( 49 - 49) =    -10.38802  eV     1   --> A              
     e( 50 - 50) =    -10.38499  eV     1   --> A              
     e( 51 - 51) =    -10.36058  eV     1   --> A              
     e( 52 - 52) =    -10.36026  eV     1   --> A              
     e( 53 - 53) =    -10.35075  eV     1   --> A              
     e( 54 - 54) =    -10.35023  eV     1   --> A              
     e( 55 - 55) =     -7.26183  eV     1   --> A              
     e( 56 - 56) =     -6.87010  eV     1   --> A              
     e( 57 - 57) =     -6.75728  eV     1   --> A              
     e( 58 - 58) =     -5.92586  eV     1   --> A              
     e( 59 - 59) =     -5.85585  eV     1   --> A              
     e( 60 - 60) =     -5.56717  eV     1   --> A              
     e( 61 - 61) =     -5.56212  eV     1   --> A              
     e( 62 - 62) =     -5.45539  eV     1   --> A              
     e( 63 - 63) =     -5.45346  eV     1   --> A              
     e( 64 - 64) =     -5.35702  eV     1   --> A              
     e( 65 - 65) =     -5.35317  eV     1   --> A              
     e( 66 - 66) =     -5.29444  eV     1   --> A              
     e( 67 - 67) =     -5.23075  eV     1   --> A              
     e( 68 - 68) =     -5.22676  eV     1   --> A              
     e( 69 - 69) =     -4.99891  eV     1   --> A              
     e( 70 - 70) =     -4.99622  eV     1   --> A              
     e( 71 - 71) =     -4.83770  eV     1   --> A              
     e( 72 - 72) =     -4.83530  eV     1   --> A              
     e( 73 - 73) =      1.64319  eV     1   --> A              
     e( 74 - 74) =      1.76880  eV     1   --> A              
     e( 75 - 75) =      1.82427  eV     1   --> A              
     e( 76 - 76) =      2.50723  eV     1   --> A              
     e( 77 - 77) =      2.62068  eV     1   --> A              
     e( 78 - 78) =      3.38397  eV     1   --> A              
     e( 79 - 79) =      4.17233  eV     1   --> A              
     e( 80 - 80) =      4.18279  eV     1   --> A              
     e( 81 - 81) =      4.31010  eV     1   --> A              
     e( 82 - 82) =      4.32260  eV     1   --> A              
     e( 83 - 83) =      4.66603  eV     1   --> A              
     e( 84 - 84) =      4.67081  eV     1   --> A              
     e( 85 - 85) =      4.85497  eV     1   --> A              
     e( 86 - 86) =      4.86918  eV     1   --> A              
     e( 87 - 87) =      4.90143  eV     1   --> A              
     e( 88 - 88) =      5.02941  eV     1   --> A              
     e( 89 - 89) =      5.06619  eV     1   --> A              
     e( 90 - 90) =      5.14290  eV     1   --> A              
     e( 91 - 91) =      5.16737  eV     1   --> A              
     e( 92 - 92) =      5.48776  eV     1   --> A              
     e( 93 - 93) =      5.52407  eV     1   --> A              
     e( 94 - 94) =      5.52877  eV     1   --> A              
     e( 95 - 95) =      6.20031  eV     1   --> A              
     e( 96 - 96) =      6.36639  eV     1   --> A              
     e( 97 - 97) =      6.36828  eV     1   --> A              
     e( 98 - 98) =      6.47245  eV     1   --> A              
     e( 99 - 99) =      6.74277  eV     1   --> A              
     e(100 -100) =      6.78900  eV     1   --> A              
     e(101 -101) =      6.93105  eV     1   --> A              
     e(102 -102) =      7.05483  eV     1   --> A              
     e(103 -103) =      7.09984  eV     1   --> A              
     e(104 -104) =      7.31267  eV     1   --> A              
     e(105 -105) =      7.36896  eV     1   --> A              
     e(106 -106) =      7.41602  eV     1   --> A              
     e(107 -107) =      7.56115  eV     1   --> A              
     e(108 -108) =      7.62103  eV     1   --> A              
     e(109 -109) =      7.81681  eV     1   --> A              
     e(110 -110) =      7.85663  eV     1   --> A              
     e(111 -111) =      8.10994  eV     1   --> A              
     e(112 -112) =      8.13921  eV     1   --> A              
     e(113 -113) =      8.36545  eV     1   --> A              
     e(114 -114) =      8.40478  eV     1   --> A              
     e(115 -115) =      8.44868  eV     1   --> A              
     e(116 -116) =      8.50732  eV     1   --> A              
     e(117 -117) =      8.91017  eV     1   --> A              
     e(118 -118) =      8.92978  eV     1   --> A              
     e(119 -119) =      9.15594  eV     1   --> A              
     e(120 -120) =      9.17508  eV     1   --> A              
     e(121 -121) =      9.34048  eV     1   --> A              
     e(122 -122) =      9.43213  eV     1   --> A              
     e(123 -123) =      9.46597  eV     1   --> A              
     e(124 -124) =      9.51835  eV     1   --> A              
     e(125 -125) =      9.66139  eV     1   --> A              
     e(126 -126) =      9.68132  eV     1   --> A              
     e(127 -127) =     10.00881  eV     1   --> A              
     e(128 -128) =     10.05546  eV     1   --> A              
     e(129 -129) =     10.11931  eV     1   --> A              
     e(130 -130) =     10.14289  eV     1   --> A              
     e(131 -131) =     10.15882  eV     1   --> A              
     e(132 -132) =     10.18971  eV     1   --> A              
     e(133 -133) =     10.22053  eV     1   --> A              
     e(134 -134) =     10.42477  eV     1   --> A              
     e(135 -135) =     10.43782  eV     1   --> A              
     e(136 -136) =     10.61307  eV     1   --> A              
     e(137 -137) =     10.67559  eV     1   --> A              
     e(138 -138) =     10.84447  eV     1   --> A              
     e(139 -139) =     10.99525  eV     1   --> A              
     e(140 -140) =     11.03117  eV     1   --> A              
     e(141 -141) =     11.17227  eV     1   --> A              
     e(142 -142) =     11.21000  eV     1   --> A              
     e(143 -143) =     11.28670  eV     1   --> A              
     e(144 -144) =     11.31736  eV     1   --> A              
     e(145 -145) =     11.39783  eV     1   --> A              
     e(146 -146) =     11.93510  eV     1   --> A              
     e(147 -147) =     11.94391  eV     1   --> A              
     e(148 -148) =     13.73193  eV     1   --> A              
     e(149 -149) =     13.74498  eV     1   --> A              
     e(150 -150) =     13.87341  eV     1   --> A              
     e(151 -151) =     13.92152  eV     1   --> A              
     e(152 -152) =     13.99793  eV     1   --> A              
     e(153 -153) =     14.01091  eV     1   --> A              
     e(154 -154) =     14.06198  eV     1   --> A              
     e(155 -155) =     14.17553  eV     1   --> A              
     e(156 -156) =     14.17640  eV     1   --> A              
     e(157 -157) =     14.30956  eV     1   --> A              
     e(158 -158) =     14.31326  eV     1   --> A              
     e(159 -159) =     14.96773  eV     1   --> A              
     e(160 -160) =     14.98296  eV     1   --> A              
     e(161 -161) =     15.59912  eV     1   --> A              
     e(162 -162) =     15.61464  eV     1   --> A              
     e(163 -163) =     15.63328  eV     1   --> A              
     e(164 -164) =     15.82800  eV     1   --> A              
     e(165 -165) =     15.91317  eV     1   --> A              
     e(166 -166) =     16.04664  eV     1   --> A              
     e(167 -167) =     17.17167  eV     1   --> A              
     e(168 -168) =     17.18569  eV     1   --> A              
     e(169 -169) =     17.23444  eV     1   --> A              
     e(170 -170) =     17.29899  eV     1   --> A              
     e(171 -171) =     17.37073  eV     1   --> A              
     e(172 -172) =     17.37812  eV     1   --> A              
     e(173 -173) =     17.66948  eV     1   --> A              
     e(174 -174) =     17.67608  eV     1   --> A              
     e(175 -175) =     17.71911  eV     1   --> A              
     e(176 -176) =     17.75526  eV     1   --> A              

 **************************************************************************

 **************************************************************************

                    xk=(   0.00000,   0.00000,   0.00000  )

     Band symmetry, C_1 (1)     point group:

     e(  1 -  1) =    -79.47693  eV     1   --> A              
     e(  2 -  2) =    -79.28738  eV     1   --> A              
     e(  3 -  3) =    -79.23794  eV     1   --> A              
     e(  4 -  4) =    -74.19551  eV     1   --> A              
     e(  5 -  5) =    -74.07214  eV     1   --> A              
     e(  6 -  6) =    -74.05677  eV     1   --> A              
     e(  7 -  7) =    -45.46953  eV     1   --> A              
     e(  8 -  9) =    -45.41759  eV     2   -->   2 A              
     e( 10 - 11) =    -45.27645  eV     2   -->   2 A              
     e( 12 - 13) =    -45.23596  eV     2   -->   2 A              
     e( 14 - 15) =    -45.16766  eV     2   -->   2 A              
     e( 16 - 16) =    -40.33091  eV     1   --> A              
     e( 17 - 18) =    -40.28135  eV     2   -->   2 A              
     e( 19 - 19) =    -40.20882  eV     1   --> A              
     e( 20 - 20) =    -40.20689  eV     1   --> A              
     e( 21 - 22) =    -40.16223  eV     2   -->   2 A              
     e( 23 - 24) =    -40.14573  eV     2   -->   2 A              
     e( 25 - 26) =    -10.57784  eV     2   -->   2 A              
     e( 27 - 28) =    -10.55468  eV     2   -->   2 A              
     e( 29 - 29) =    -10.53898  eV     1   --> A              
     e( 30 - 30) =    -10.53056  eV     1   --> A              
     e( 31 - 32) =    -10.51155  eV     2   -->   2 A              
     e( 33 - 34) =    -10.49569  eV     2   -->   2 A              
     e( 35 - 36) =    -10.48910  eV     2   -->   2 A              
     e( 37 - 38) =    -10.46608  eV     2   -->   2 A              
     e( 39 - 39) =    -10.44221  eV     1   --> A              
     e( 40 - 40) =    -10.43118  eV     1   --> A              
     e( 41 - 42) =    -10.41881  eV     2   -->   2 A              
     e( 43 - 44) =    -10.40841  eV     2   -->   2 A              
     e( 45 - 46) =    -10.39893  eV     2   -->   2 A              
     e( 47 - 47) =    -10.39400  eV     1   --> A              
     e( 48 - 49) =    -10.38781  eV     2   -->   2 A              
     e( 50 - 50) =    -10.38525  eV     1   --> A              
     e( 51 - 52) =    -10.36035  eV     2   -->   2 A              
     e( 53 - 54) =    -10.34998  eV     2   -->   2 A              
     e( 55 - 55) =     -7.27328  eV     1   --> A              
     e( 56 - 56) =     -6.87959  eV     1   --> A              
     e( 57 - 57) =     -6.76700  eV     1   --> A              
     e( 58 - 58) =     -5.92770  eV     1   --> A              
     e( 59 - 59) =     -5.85674  eV     1   --> A              
     e( 60 - 61) =     -5.55887  eV     2   -->   2 A              
     e( 62 - 63) =     -5.44993  eV     2   -->   2 A              
     e( 64 - 65) =     -5.34949  eV     2   -->   2 A              
     e( 66 - 66) =     -5.29182  eV     1   --> A              
     e( 67 - 67) =     -5.22605  eV     1   --> A              
     e( 68 - 68) =     -5.22590  eV     1   --> A              
     e( 69 - 70) =     -4.99215  eV     2   -->   2 A              
     e( 71 - 72) =     -4.83581  eV     2   -->   2 A              
     e( 73 - 73) =      1.64706  eV     1   --> A              
     e( 74 - 74) =      1.77244  eV     1   --> A              
     e( 75 - 75) =      1.82775  eV     1   --> A              
     e( 76 - 76) =      2.52008  eV     1   --> A              
     e( 77 - 77) =      2.63469  eV     1   --> A              
     e( 78 - 78) =      3.42476  eV     1   --> A              
     e( 79 - 80) =      4.17114  eV     2   -->   2 A              
     e( 81 - 82) =      4.31010  eV     2   -->   2 A              
     e( 83 - 84) =      4.65895  eV     2   -->   2 A              
     e( 85 - 86) =      4.87344  eV     2   -->   2 A              
     e( 87 - 87) =      4.89582  eV     1   --> A              
     e( 88 - 88) =      5.02972  eV     1   --> A              
     e( 89 - 89) =      5.08320  eV     1   --> A              
     e( 90 - 91) =      5.13894  eV     2   -->   2 A              
     e( 92 - 92) =      5.47652  eV     1   --> A              
     e( 93 - 94) =      5.52460  eV     2   -->   2 A              
     e( 95 - 95) =      6.19412  eV     1   --> A              
     e( 96 - 97) =      6.33773  eV     2   -->   2 A              
     e( 98 - 98) =      6.46796  eV     1   --> A              
     e( 99 -100) =      6.76071  eV     2   -->   2 A              
     e(101 -101) =      6.90506  eV     1   --> A              
     e(102 -103) =      7.04461  eV     2   -->   2 A              
     e(104 -104) =      7.34415  eV     1   --> A              
     e(105 -106) =      7.40288  eV     2   -->   2 A              
     e(107 -107) =      7.51445  eV     1   --> A              
     e(108 -108) =      7.60161  eV     1   --> A              
     e(109 -110) =      7.82295  eV     2   -->   2 A              
     e(111 -112) =      8.11188  eV     2   -->   2 A              
     e(113 -113) =      8.34615  eV     1   --> A              
     e(114 -115) =      8.43865  eV     2   -->   2 A              
     e(116 -116) =      8.44363  eV     1   --> A              
     e(117 -118) =      8.93751  eV     2   -->   2 A              
     e(119 -120) =      9.17461  eV     2   -->   2 A              
     e(121 -121) =      9.38123  eV     1   --> A              
     e(122 -123) =      9.42869  eV     2   -->   2 A              
     e(124 -124) =      9.45972  eV     1   --> A              
     e(125 -126) =      9.68849  eV     2   -->   2 A              
     e(127 -128) =     10.06370  eV     2   -->   2 A              
     e(129 -130) =     10.16460  eV     2   -->   2 A              
     e(131 -131) =     10.16851  eV     1   --> A              
     e(132 -133) =     10.21530  eV     2   -->   2 A              
     e(134 -135) =     10.45030  eV     2   -->   2 A              
     e(136 -137) =     10.66548  eV     2   -->   2 A              
     e(138 -138) =     10.81463  eV     1   --> A              
     e(139 -139) =     10.95051  eV     1   --> A              
     e(140 -140) =     11.15917  eV     1   --> A              
     e(141 -142) =     11.18308  eV     2   -->   2 A              
     e(143 -143) =     11.25813  eV     1   --> A              
     e(144 -144) =     11.28664  eV     1   --> A              
     e(145 -145) =     11.34425  eV     1   --> A              
     e(146 -147) =     11.94402  eV     2   -->   2 A              
     e(148 -149) =     13.74237  eV     2   -->   2 A              
     e(150 -150) =     13.85840  eV     1   --> A              
     e(151 -151) =     13.93495  eV     1   --> A              
     e(152 -153) =     13.99714  eV     2   -->   2 A              
     e(154 -154) =     14.05324  eV     1   --> A              
     e(155 -156) =     14.18074  eV     2   -->   2 A              
     e(157 -158) =     14.30350  eV     2   -->   2 A              
     e(159 -160) =     14.98470  eV     2   -->   2 A              
     e(161 -161) =     15.60619  eV     1   --> A              
     e(162 -163) =     15.63825  eV     2   -->   2 A              
     e(164 -164) =     15.83463  eV     1   --> A              
     e(165 -165) =     15.90944  eV     1   --> A              
     e(166 -166) =     16.04244  eV     1   --> A              
     e(167 -168) =     17.26330  eV     2   -->   2 A              
     e(169 -170) =     17.29118  eV     2   -->   2 A              
     e(171 -172) =     17.37221  eV     2   -->   2 A              
     e(173 -173) =     17.65540  eV     1   --> A              
     e(174 -174) =     17.73097  eV     1   --> A              
     e(175 -176) =     17.80615  eV     2   -->   2 A              

 **************************************************************************

     BANDS        :   2m19.43s CPU   3m 4.92s WALL


   This run was terminated on:  23:40:25  15Dec2024            

=------------------------------------------------------------------------------=
   JOB DONE.
=------------------------------------------------------------------------------=
