
     Program PWSCF v.6.7MaX starts on 24Oct2024 at 12:52:19 

     This program is part of the open-source Quantum ESPRESSO suite
     for quantum simulation of materials; please cite
         "P. Giannozzi et al., J. Phys.:Condens. Matter 21 395502 (2009);
         "P. Giannozzi et al., J. Phys.:Condens. Matter 29 465901 (2017);
          URL http://www.quantum-espresso.org", 
     in publications or presentations arising from this work. More details at
     http://www.quantum-espresso.org/quote

     Parallel version (MPI), running on     4 processors

     MPI processes distributed on     1 nodes
     R & G space division:  proc/nbgrp/npool/nimage =       4
     Waiting for input...
     Reading input from standard input

     Current dimensions of program PWSCF are:
     Max number of different atomic species (ntypx) = 10
     Max number of k-points (npk) =  40000
     Max angular momentum in pseudopotentials (lmaxx) =  3
     Message from routine iosys:
     wrong startingpot: use default (1)

     Subspace diagonalization in iterative solution of the eigenvalue problem:
     one sub-group per band group will be used
     scalapack distributed-memory algorithm (size of sub-group:  2*  2 procs)

     Found symmetry operation: I + ( -0.5000 -0.5000  0.0000)
     This is a supercell, fractional translations are disabled

     Parallelization info
     --------------------
     sticks:   dense  smooth     PW     G-vecs:    dense   smooth      PW
     Min         355     175     44                10024     3536     446
     Max         357     179     45                10025     3537     449
     Sum        1425     709    177                40099    14147    1791



     bravais-lattice index     =            1
     lattice parameter (alat)  =      14.9137  a.u.
     unit-cell volume          =    3317.0944 (a.u.)^3
     number of atoms/cell      =           40
     number of atomic types    =            4
     number of electrons       =       392.00
     number of Kohn-Sham states=          235
     kinetic-energy cutoff     =      10.0000  Ry
     charge density cutoff     =      80.0000  Ry
     scf convergence threshold =      1.0E-05
     mixing beta               =       0.4000
     number of iterations used =            8  plain     mixing
     Exchange-correlation= SLA  PW   PSX  PSC
                           (   1   4  10   8   0   0   0)

     celldm(1)=  14.913719  celldm(2)=   0.000000  celldm(3)=   0.000000
     celldm(4)=   0.000000  celldm(5)=   0.000000  celldm(6)=   0.000000

     crystal axes: (cart. coord. in units of alat)
               a(1) = (   1.000000   0.000000   0.000000 )  
               a(2) = (   0.000000   1.000000   0.000000 )  
               a(3) = (   0.000000   0.000000   1.000000 )  

     reciprocal axes: (cart. coord. in units 2 pi/alat)
               b(1) = (  1.000000  0.000000  0.000000 )  
               b(2) = (  0.000000  1.000000  0.000000 )  
               b(3) = (  0.000000  0.000000  1.000000 )  


     PseudoPot. # 1 for O  read from file:
     /home/aldair1809/Programas/QE/q-e-qe-7.3/pseudo/o_pbesol_v1.2.uspp.F.UPF
     MD5 check sum: 501638753501ef6325af9037351f7734
     Pseudo is Ultrasoft + core correction, Zval =  6.0
     Generated by new atomic code, or converted to UPF format
     Using radial grid of  737 points,  5 beta functions with: 
                l(1) =   0
                l(2) =   0
                l(3) =   1
                l(4) =   1
                l(5) =   2
     Q(r) pseudized with  8 coefficients,  rinner =    0.900   0.900   0.900
                                                       0.900   0.900

     PseudoPot. # 2 for Bi read from file:
     /home/aldair1809/Programas/QE/q-e-qe-7.3/pseudo/bi_pbesol_v1.uspp.F.UPF
     MD5 check sum: 588b87649a5c12ad5a0392deab1dcc00
     Pseudo is Ultrasoft + core correction, Zval = 15.0
     Generated by new atomic code, or converted to UPF format
     Using radial grid of  899 points,  6 beta functions with: 
                l(1) =   0
                l(2) =   0
                l(3) =   1
                l(4) =   1
                l(5) =   2
                l(6) =   2
     Q(r) pseudized with  6 coefficients,  rinner =    1.000   1.000   1.000
                                                       1.000   1.000

     PseudoPot. # 3 for Fe read from file:
     /home/aldair1809/Programas/QE/q-e-qe-7.3/pseudo/fe_pbesol_v1.5.uspp.F.UPF
     MD5 check sum: a3f38e9a1a818e424be8f97771a26c64
     Pseudo is Ultrasoft + core correction, Zval = 16.0
     Generated by new atomic code, or converted to UPF format
     Using radial grid of  861 points,  6 beta functions with: 
                l(1) =   0
                l(2) =   0
                l(3) =   1
                l(4) =   1
                l(5) =   2
                l(6) =   2
     Q(r) pseudized with  8 coefficients,  rinner =    1.000   1.000   1.000
                                                       1.000   1.000

     PseudoPot. # 4 for Fe read from file:
     /home/aldair1809/Programas/QE/q-e-qe-7.3/pseudo/fe_pbesol_v1.5.uspp.F.UPF
     MD5 check sum: a3f38e9a1a818e424be8f97771a26c64
     Pseudo is Ultrasoft + core correction, Zval = 16.0
     Generated by new atomic code, or converted to UPF format
     Using radial grid of  861 points,  6 beta functions with: 
                l(1) =   0
                l(2) =   0
                l(3) =   1
                l(4) =   1
                l(5) =   2
                l(6) =   2
     Q(r) pseudized with  8 coefficients,  rinner =    1.000   1.000   1.000
                                                       1.000   1.000

     atomic species   valence    mass     pseudopotential
        O              6.00    15.99940     O ( 1.00)
        Bi            15.00   208.98040     Bi( 1.00)
        Fe1           16.00    55.84500     Fe( 1.00)
        Fe2           16.00    55.84500     Fe( 1.00)

     Starting magnetic structure 
     atomic species   magnetization
        O            0.000
        Bi           0.000
        Fe1         -0.800
        Fe2          0.800


     Simplified LDA+U calculation (l_max = 2) with parameters (eV):
     atomic species    L          U    alpha       J0     beta
        Fe1            2     4.5000   0.0000   0.0000   0.0000
        Fe2            2     4.5000   0.0000   0.0000   0.0000



      8 Sym. Ops., with inversion, found


                                    s                        frac. trans.

      isym =  1     identity                                     

 cryst.   s( 1) = (     1          0          0      )
                  (     0          1          0      )
                  (     0          0          1      )

 cart.    s( 1) = (  1.0000000  0.0000000  0.0000000 )
                  (  0.0000000  1.0000000  0.0000000 )
                  (  0.0000000  0.0000000  1.0000000 )


      isym =  2     180 deg rotation - cart. axis [0,0,1]        

 cryst.   s( 2) = (    -1          0          0      )
                  (     0         -1          0      )
                  (     0          0          1      )

 cart.    s( 2) = ( -1.0000000  0.0000000  0.0000000 )
                  (  0.0000000 -1.0000000  0.0000000 )
                  (  0.0000000  0.0000000  1.0000000 )


      isym =  3     180 deg rotation - cart. axis [1,1,0]        

 cryst.   s( 3) = (     0          1          0      )
                  (     1          0          0      )
                  (     0          0         -1      )

 cart.    s( 3) = (  0.0000000  1.0000000  0.0000000 )
                  (  1.0000000  0.0000000  0.0000000 )
                  (  0.0000000  0.0000000 -1.0000000 )


      isym =  4     180 deg rotation - cart. axis [1,-1,0]       

 cryst.   s( 4) = (     0         -1          0      )
                  (    -1          0          0      )
                  (     0          0         -1      )

 cart.    s( 4) = (  0.0000000 -1.0000000  0.0000000 )
                  ( -1.0000000  0.0000000  0.0000000 )
                  (  0.0000000  0.0000000 -1.0000000 )


      isym =  5     inversion                                    

 cryst.   s( 5) = (    -1          0          0      )
                  (     0         -1          0      )
                  (     0          0         -1      )

 cart.    s( 5) = ( -1.0000000  0.0000000  0.0000000 )
                  (  0.0000000 -1.0000000  0.0000000 )
                  (  0.0000000  0.0000000 -1.0000000 )


      isym =  6     inv. 180 deg rotation - cart. axis [0,0,1]   

 cryst.   s( 6) = (     1          0          0      )
                  (     0          1          0      )
                  (     0          0         -1      )

 cart.    s( 6) = (  1.0000000  0.0000000  0.0000000 )
                  (  0.0000000  1.0000000  0.0000000 )
                  (  0.0000000  0.0000000 -1.0000000 )


      isym =  7     inv. 180 deg rotation - cart. axis [1,1,0]   

 cryst.   s( 7) = (     0         -1          0      )
                  (    -1          0          0      )
                  (     0          0          1      )

 cart.    s( 7) = (  0.0000000 -1.0000000  0.0000000 )
                  ( -1.0000000  0.0000000  0.0000000 )
                  (  0.0000000  0.0000000  1.0000000 )


      isym =  8     inv. 180 deg rotation - cart. axis [1,-1,0]  

 cryst.   s( 8) = (     0          1          0      )
                  (     1          0          0      )
                  (     0          0          1      )

 cart.    s( 8) = (  0.0000000  1.0000000  0.0000000 )
                  (  1.0000000  0.0000000  0.0000000 )
                  (  0.0000000  0.0000000  1.0000000 )


     point group D_2h (mmm) 
     there are  8 classes
     the character table:

       E     C2    C2'   C2''  i     s_v   s_v'  s_v''
A_g    1.00  1.00  1.00  1.00  1.00  1.00  1.00  1.00
B_1g   1.00  1.00 -1.00 -1.00  1.00  1.00 -1.00 -1.00
B_2g   1.00 -1.00  1.00 -1.00  1.00 -1.00  1.00 -1.00
B_3g   1.00 -1.00 -1.00  1.00  1.00 -1.00 -1.00  1.00
A_u    1.00  1.00  1.00  1.00 -1.00 -1.00 -1.00 -1.00
B_1u   1.00  1.00 -1.00 -1.00 -1.00 -1.00  1.00  1.00
B_2u   1.00 -1.00  1.00 -1.00 -1.00  1.00 -1.00  1.00
B_3u   1.00 -1.00 -1.00  1.00 -1.00  1.00  1.00 -1.00

     the symmetry operations in each class and the name of the first element:

     E        1
          identity                                               
     C2       2
          180 deg rotation - cart. axis [0,0,1]                  
     C2'      4
          180 deg rotation - cart. axis [1,-1,0]                 
     C2''     3
          180 deg rotation - cart. axis [1,1,0]                  
     i        5
          inversion                                              
     s_v      6
          inv. 180 deg rotation - cart. axis [0,0,1]             
     s_v'     8
          inv. 180 deg rotation - cart. axis [1,-1,0]            
     s_v''    7
          inv. 180 deg rotation - cart. axis [1,1,0]             

   Cartesian axes

     site n.     atom                  positions (alat units)
         1           Bi  tau(   1) = (   0.0000000   0.0000000   0.0000000  )
         2           Bi  tau(   2) = (   0.5000000   0.5000000   0.0000000  )
         3           Bi  tau(   3) = (   0.5000000   0.0000000   0.0000000  )
         4           Bi  tau(   4) = (   0.0000000   0.5000000   0.5000000  )
         5           Bi  tau(   5) = (   0.0000000   0.0000000   0.5000000  )
         6           Bi  tau(   6) = (   0.5000000   0.5000000   0.5000000  )
         7           Bi  tau(   7) = (   0.5000000   0.0000000   0.5000000  )
         8           Bi  tau(   8) = (   0.0000000   0.5000000   0.0000000  )
         9           Fe2 tau(   9) = (   0.2500000   0.2500000   0.2500000  )
        10           Fe2 tau(  10) = (   0.7500000   0.7500000   0.2500000  )
        11           Fe1 tau(  11) = (   0.7500000   0.2500000   0.2500000  )
        12           Fe1 tau(  12) = (   0.2500000   0.7500000   0.7500000  )
        13           Fe2 tau(  13) = (   0.2500000   0.2500000   0.7500000  )
        14           Fe2 tau(  14) = (   0.7500000   0.7500000   0.7500000  )
        15           Fe1 tau(  15) = (   0.7500000   0.2500000   0.7500000  )
        16           Fe1 tau(  16) = (   0.2500000   0.7500000   0.2500000  )
        17           O   tau(  17) = (   0.2500000   0.2500000   0.0000000  )
        18           O   tau(  18) = (   0.2500000   0.0000000   0.2500000  )
        19           O   tau(  19) = (   0.0000000   0.2500000   0.2500000  )
        20           O   tau(  20) = (   0.7500000   0.7500000   0.0000000  )
        21           O   tau(  21) = (   0.7500000   0.2500000   0.0000000  )
        22           O   tau(  22) = (   0.2500000   0.7500000   0.5000000  )
        23           O   tau(  23) = (   0.2500000   0.2500000   0.5000000  )
        24           O   tau(  24) = (   0.7500000   0.7500000   0.5000000  )
        25           O   tau(  25) = (   0.7500000   0.2500000   0.5000000  )
        26           O   tau(  26) = (   0.2500000   0.7500000   0.0000000  )
        27           O   tau(  27) = (   0.7500000   0.5000000   0.2500000  )
        28           O   tau(  28) = (   0.7500000   0.0000000   0.2500000  )
        29           O   tau(  29) = (   0.2500000   0.5000000   0.7500000  )
        30           O   tau(  30) = (   0.2500000   0.0000000   0.7500000  )
        31           O   tau(  31) = (   0.7500000   0.5000000   0.7500000  )
        32           O   tau(  32) = (   0.7500000   0.0000000   0.7500000  )
        33           O   tau(  33) = (   0.2500000   0.5000000   0.2500000  )
        34           O   tau(  34) = (   0.5000000   0.7500000   0.2500000  )
        35           O   tau(  35) = (   0.5000000   0.2500000   0.2500000  )
        36           O   tau(  36) = (   0.0000000   0.7500000   0.7500000  )
        37           O   tau(  37) = (   0.0000000   0.2500000   0.7500000  )
        38           O   tau(  38) = (   0.5000000   0.7500000   0.7500000  )
        39           O   tau(  39) = (   0.5000000   0.2500000   0.7500000  )
        40           O   tau(  40) = (   0.0000000   0.7500000   0.2500000  )

   Crystallographic axes

     site n.     atom                  positions (cryst. coord.)
         1           Bi  tau(   1) = (  0.0000000  0.0000000  0.0000000  )
         2           Bi  tau(   2) = (  0.5000000  0.5000000  0.0000000  )
         3           Bi  tau(   3) = (  0.5000000  0.0000000  0.0000000  )
         4           Bi  tau(   4) = (  0.0000000  0.5000000  0.5000000  )
         5           Bi  tau(   5) = (  0.0000000  0.0000000  0.5000000  )
         6           Bi  tau(   6) = (  0.5000000  0.5000000  0.5000000  )
         7           Bi  tau(   7) = (  0.5000000  0.0000000  0.5000000  )
         8           Bi  tau(   8) = (  0.0000000  0.5000000  0.0000000  )
         9           Fe2 tau(   9) = (  0.2500000  0.2500000  0.2500000  )
        10           Fe2 tau(  10) = (  0.7500000  0.7500000  0.2500000  )
        11           Fe1 tau(  11) = (  0.7500000  0.2500000  0.2500000  )
        12           Fe1 tau(  12) = (  0.2500000  0.7500000  0.7500000  )
        13           Fe2 tau(  13) = (  0.2500000  0.2500000  0.7500000  )
        14           Fe2 tau(  14) = (  0.7500000  0.7500000  0.7500000  )
        15           Fe1 tau(  15) = (  0.7500000  0.2500000  0.7500000  )
        16           Fe1 tau(  16) = (  0.2500000  0.7500000  0.2500000  )
        17           O   tau(  17) = (  0.2500000  0.2500000  0.0000000  )
        18           O   tau(  18) = (  0.2500000  0.0000000  0.2500000  )
        19           O   tau(  19) = (  0.0000000  0.2500000  0.2500000  )
        20           O   tau(  20) = (  0.7500000  0.7500000  0.0000000  )
        21           O   tau(  21) = (  0.7500000  0.2500000  0.0000000  )
        22           O   tau(  22) = (  0.2500000  0.7500000  0.5000000  )
        23           O   tau(  23) = (  0.2500000  0.2500000  0.5000000  )
        24           O   tau(  24) = (  0.7500000  0.7500000  0.5000000  )
        25           O   tau(  25) = (  0.7500000  0.2500000  0.5000000  )
        26           O   tau(  26) = (  0.2500000  0.7500000  0.0000000  )
        27           O   tau(  27) = (  0.7500000  0.5000000  0.2500000  )
        28           O   tau(  28) = (  0.7500000  0.0000000  0.2500000  )
        29           O   tau(  29) = (  0.2500000  0.5000000  0.7500000  )
        30           O   tau(  30) = (  0.2500000  0.0000000  0.7500000  )
        31           O   tau(  31) = (  0.7500000  0.5000000  0.7500000  )
        32           O   tau(  32) = (  0.7500000  0.0000000  0.7500000  )
        33           O   tau(  33) = (  0.2500000  0.5000000  0.2500000  )
        34           O   tau(  34) = (  0.5000000  0.7500000  0.2500000  )
        35           O   tau(  35) = (  0.5000000  0.2500000  0.2500000  )
        36           O   tau(  36) = (  0.0000000  0.7500000  0.7500000  )
        37           O   tau(  37) = (  0.0000000  0.2500000  0.7500000  )
        38           O   tau(  38) = (  0.5000000  0.7500000  0.7500000  )
        39           O   tau(  39) = (  0.5000000  0.2500000  0.7500000  )
        40           O   tau(  40) = (  0.0000000  0.7500000  0.2500000  )

     number of k points=     1  Methfessel-Paxton smearing, width (Ry)=  0.0100
                       cart. coord. in units 2pi/alat
        k(    1) = (   0.0000000   0.0000000   0.0000000), wk =   1.0000000

                       cryst. coord.
        k(    1) = (   0.0000000   0.0000000   0.0000000), wk =   1.0000000

     Dense  grid:    40099 G-vectors     FFT dimensions: (  45,  45,  45)

     Smooth grid:    14147 G-vectors     FFT dimensions: (  32,  32,  32)

     Dynamical RAM for                 wfc:       1.58 MB

     Dynamical RAM for     wfc (w. buffer):       4.75 MB

     Dynamical RAM for             U proj.:       0.27 MB

     Dynamical RAM for  U proj. (w. buff.):       0.81 MB

     Dynamical RAM for           str. fact:       0.61 MB

     Dynamical RAM for           local pot:       0.00 MB

     Dynamical RAM for          nlocal pot:       4.05 MB

     Dynamical RAM for                qrad:       2.88 MB

     Dynamical RAM for          rho,v,vnew:       2.03 MB

     Dynamical RAM for               rhoin:       0.68 MB

     Dynamical RAM for            rho*nmix:       4.90 MB

     Dynamical RAM for           G-vectors:       0.60 MB

     Dynamical RAM for          h,s,v(r/c):       0.63 MB

     Dynamical RAM for          <psi|beta>:       2.15 MB

     Dynamical RAM for      wfcinit/wfcrot:       5.36 MB

     Dynamical RAM for           addusdens:      32.28 MB

     Estimated static dynamical RAM per process >      23.18 MB

     Estimated max dynamical RAM per process >      55.46 MB

     Estimated total dynamical RAM >     221.83 MB

     Check: negative core charge=   -0.001419
     Generating pointlists ...
     new r_m :   0.1031 (alat units)  1.5380 (a.u.) for type    1
     new r_m :   0.1458 (alat units)  2.1750 (a.u.) for type    2
     new r_m :   0.1031 (alat units)  1.5380 (a.u.) for type    3
     new r_m :   0.1031 (alat units)  1.5380 (a.u.) for type    4

     Initial potential from superposition of free atoms

     starting charge  375.99961, renormalised to  392.00000

     negative rho (up, down):  1.783E-01 1.783E-01
 --- in v_hubbard ---
Hubbard energy    1.0584
 -------
     Number of +U iterations with fixed ns =  0
     Starting occupations:
 --- enter write_ns ---
 LDA+U parameters:
U( 3)     =  4.50000000
U( 4)     =  4.50000000
atom    9   Tr[ns(na)] (up, down, total) =   5.00000  1.00000  6.00000
   spin  1
    eigenvalues: 
  1.000  1.000  1.000  1.000  1.000
    eigenvectors:
  1.000  0.000  0.000  0.000  0.000
  0.000  1.000  0.000  0.000  0.000
  0.000  0.000  1.000  0.000  0.000
  0.000  0.000  0.000  1.000  0.000
  0.000  0.000  0.000  0.000  1.000
    occupations:
  1.000  0.000  0.000  0.000  0.000
  0.000  1.000  0.000  0.000  0.000
  0.000  0.000  1.000  0.000  0.000
  0.000  0.000  0.000  1.000  0.000
  0.000  0.000  0.000  0.000  1.000
   spin  2
    eigenvalues: 
  0.200  0.200  0.200  0.200  0.200
    eigenvectors:
  1.000  0.000  0.000  0.000  0.000
  0.000  1.000  0.000  0.000  0.000
  0.000  0.000  1.000  0.000  0.000
  0.000  0.000  0.000  1.000  0.000
  0.000  0.000  0.000  0.000  1.000
    occupations:
  0.200  0.000  0.000  0.000  0.000
  0.000  0.200  0.000  0.000  0.000
  0.000  0.000  0.200  0.000  0.000
  0.000  0.000  0.000  0.200  0.000
  0.000  0.000  0.000  0.000  0.200
atomic mag. moment =   4.00000
atom   10   Tr[ns(na)] (up, down, total) =   5.00000  1.00000  6.00000
   spin  1
    eigenvalues: 
  1.000  1.000  1.000  1.000  1.000
    eigenvectors:
  1.000  0.000  0.000  0.000  0.000
  0.000  1.000  0.000  0.000  0.000
  0.000  0.000  1.000  0.000  0.000
  0.000  0.000  0.000  1.000  0.000
  0.000  0.000  0.000  0.000  1.000
    occupations:
  1.000  0.000  0.000  0.000  0.000
  0.000  1.000  0.000  0.000  0.000
  0.000  0.000  1.000  0.000  0.000
  0.000  0.000  0.000  1.000  0.000
  0.000  0.000  0.000  0.000  1.000
   spin  2
    eigenvalues: 
  0.200  0.200  0.200  0.200  0.200
    eigenvectors:
  1.000  0.000  0.000  0.000  0.000
  0.000  1.000  0.000  0.000  0.000
  0.000  0.000  1.000  0.000  0.000
  0.000  0.000  0.000  1.000  0.000
  0.000  0.000  0.000  0.000  1.000
    occupations:
  0.200  0.000  0.000  0.000  0.000
  0.000  0.200  0.000  0.000  0.000
  0.000  0.000  0.200  0.000  0.000
  0.000  0.000  0.000  0.200  0.000
  0.000  0.000  0.000  0.000  0.200
atomic mag. moment =   4.00000
atom   11   Tr[ns(na)] (up, down, total) =   1.00000  5.00000  6.00000
   spin  1
    eigenvalues: 
  0.200  0.200  0.200  0.200  0.200
    eigenvectors:
  1.000  0.000  0.000  0.000  0.000
  0.000  1.000  0.000  0.000  0.000
  0.000  0.000  1.000  0.000  0.000
  0.000  0.000  0.000  1.000  0.000
  0.000  0.000  0.000  0.000  1.000
    occupations:
  0.200  0.000  0.000  0.000  0.000
  0.000  0.200  0.000  0.000  0.000
  0.000  0.000  0.200  0.000  0.000
  0.000  0.000  0.000  0.200  0.000
  0.000  0.000  0.000  0.000  0.200
   spin  2
    eigenvalues: 
  1.000  1.000  1.000  1.000  1.000
    eigenvectors:
  1.000  0.000  0.000  0.000  0.000
  0.000  1.000  0.000  0.000  0.000
  0.000  0.000  1.000  0.000  0.000
  0.000  0.000  0.000  1.000  0.000
  0.000  0.000  0.000  0.000  1.000
    occupations:
  1.000  0.000  0.000  0.000  0.000
  0.000  1.000  0.000  0.000  0.000
  0.000  0.000  1.000  0.000  0.000
  0.000  0.000  0.000  1.000  0.000
  0.000  0.000  0.000  0.000  1.000
atomic mag. moment =  -4.00000
atom   12   Tr[ns(na)] (up, down, total) =   1.00000  5.00000  6.00000
   spin  1
    eigenvalues: 
  0.200  0.200  0.200  0.200  0.200
    eigenvectors:
  1.000  0.000  0.000  0.000  0.000
  0.000  1.000  0.000  0.000  0.000
  0.000  0.000  1.000  0.000  0.000
  0.000  0.000  0.000  1.000  0.000
  0.000  0.000  0.000  0.000  1.000
    occupations:
  0.200  0.000  0.000  0.000  0.000
  0.000  0.200  0.000  0.000  0.000
  0.000  0.000  0.200  0.000  0.000
  0.000  0.000  0.000  0.200  0.000
  0.000  0.000  0.000  0.000  0.200
   spin  2
    eigenvalues: 
  1.000  1.000  1.000  1.000  1.000
    eigenvectors:
  1.000  0.000  0.000  0.000  0.000
  0.000  1.000  0.000  0.000  0.000
  0.000  0.000  1.000  0.000  0.000
  0.000  0.000  0.000  1.000  0.000
  0.000  0.000  0.000  0.000  1.000
    occupations:
  1.000  0.000  0.000  0.000  0.000
  0.000  1.000  0.000  0.000  0.000
  0.000  0.000  1.000  0.000  0.000
  0.000  0.000  0.000  1.000  0.000
  0.000  0.000  0.000  0.000  1.000
atomic mag. moment =  -4.00000
atom   13   Tr[ns(na)] (up, down, total) =   5.00000  1.00000  6.00000
   spin  1
    eigenvalues: 
  1.000  1.000  1.000  1.000  1.000
    eigenvectors:
  1.000  0.000  0.000  0.000  0.000
  0.000  1.000  0.000  0.000  0.000
  0.000  0.000  1.000  0.000  0.000
  0.000  0.000  0.000  1.000  0.000
  0.000  0.000  0.000  0.000  1.000
    occupations:
  1.000  0.000  0.000  0.000  0.000
  0.000  1.000  0.000  0.000  0.000
  0.000  0.000  1.000  0.000  0.000
  0.000  0.000  0.000  1.000  0.000
  0.000  0.000  0.000  0.000  1.000
   spin  2
    eigenvalues: 
  0.200  0.200  0.200  0.200  0.200
    eigenvectors:
  1.000  0.000  0.000  0.000  0.000
  0.000  1.000  0.000  0.000  0.000
  0.000  0.000  1.000  0.000  0.000
  0.000  0.000  0.000  1.000  0.000
  0.000  0.000  0.000  0.000  1.000
    occupations:
  0.200  0.000  0.000  0.000  0.000
  0.000  0.200  0.000  0.000  0.000
  0.000  0.000  0.200  0.000  0.000
  0.000  0.000  0.000  0.200  0.000
  0.000  0.000  0.000  0.000  0.200
atomic mag. moment =   4.00000
atom   14   Tr[ns(na)] (up, down, total) =   5.00000  1.00000  6.00000
   spin  1
    eigenvalues: 
  1.000  1.000  1.000  1.000  1.000
    eigenvectors:
  1.000  0.000  0.000  0.000  0.000
  0.000  1.000  0.000  0.000  0.000
  0.000  0.000  1.000  0.000  0.000
  0.000  0.000  0.000  1.000  0.000
  0.000  0.000  0.000  0.000  1.000
    occupations:
  1.000  0.000  0.000  0.000  0.000
  0.000  1.000  0.000  0.000  0.000
  0.000  0.000  1.000  0.000  0.000
  0.000  0.000  0.000  1.000  0.000
  0.000  0.000  0.000  0.000  1.000
   spin  2
    eigenvalues: 
  0.200  0.200  0.200  0.200  0.200
    eigenvectors:
  1.000  0.000  0.000  0.000  0.000
  0.000  1.000  0.000  0.000  0.000
  0.000  0.000  1.000  0.000  0.000
  0.000  0.000  0.000  1.000  0.000
  0.000  0.000  0.000  0.000  1.000
    occupations:
  0.200  0.000  0.000  0.000  0.000
  0.000  0.200  0.000  0.000  0.000
  0.000  0.000  0.200  0.000  0.000
  0.000  0.000  0.000  0.200  0.000
  0.000  0.000  0.000  0.000  0.200
atomic mag. moment =   4.00000
atom   15   Tr[ns(na)] (up, down, total) =   1.00000  5.00000  6.00000
   spin  1
    eigenvalues: 
  0.200  0.200  0.200  0.200  0.200
    eigenvectors:
  1.000  0.000  0.000  0.000  0.000
  0.000  1.000  0.000  0.000  0.000
  0.000  0.000  1.000  0.000  0.000
  0.000  0.000  0.000  1.000  0.000
  0.000  0.000  0.000  0.000  1.000
    occupations:
  0.200  0.000  0.000  0.000  0.000
  0.000  0.200  0.000  0.000  0.000
  0.000  0.000  0.200  0.000  0.000
  0.000  0.000  0.000  0.200  0.000
  0.000  0.000  0.000  0.000  0.200
   spin  2
    eigenvalues: 
  1.000  1.000  1.000  1.000  1.000
    eigenvectors:
  1.000  0.000  0.000  0.000  0.000
  0.000  1.000  0.000  0.000  0.000
  0.000  0.000  1.000  0.000  0.000
  0.000  0.000  0.000  1.000  0.000
  0.000  0.000  0.000  0.000  1.000
    occupations:
  1.000  0.000  0.000  0.000  0.000
  0.000  1.000  0.000  0.000  0.000
  0.000  0.000  1.000  0.000  0.000
  0.000  0.000  0.000  1.000  0.000
  0.000  0.000  0.000  0.000  1.000
atomic mag. moment =  -4.00000
atom   16   Tr[ns(na)] (up, down, total) =   1.00000  5.00000  6.00000
   spin  1
    eigenvalues: 
  0.200  0.200  0.200  0.200  0.200
    eigenvectors:
  1.000  0.000  0.000  0.000  0.000
  0.000  1.000  0.000  0.000  0.000
  0.000  0.000  1.000  0.000  0.000
  0.000  0.000  0.000  1.000  0.000
  0.000  0.000  0.000  0.000  1.000
    occupations:
  0.200  0.000  0.000  0.000  0.000
  0.000  0.200  0.000  0.000  0.000
  0.000  0.000  0.200  0.000  0.000
  0.000  0.000  0.000  0.200  0.000
  0.000  0.000  0.000  0.000  0.200
   spin  2
    eigenvalues: 
  1.000  1.000  1.000  1.000  1.000
    eigenvectors:
  1.000  0.000  0.000  0.000  0.000
  0.000  1.000  0.000  0.000  0.000
  0.000  0.000  1.000  0.000  0.000
  0.000  0.000  0.000  1.000  0.000
  0.000  0.000  0.000  0.000  1.000
    occupations:
  1.000  0.000  0.000  0.000  0.000
  0.000  1.000  0.000  0.000  0.000
  0.000  0.000  1.000  0.000  0.000
  0.000  0.000  0.000  1.000  0.000
  0.000  0.000  0.000  0.000  1.000
atomic mag. moment =  -4.00000
N of occupied +U levels =   48.000000
 --- exit write_ns ---
 Atomic wfc used for LDA+U Projector are NOT orthogonalized
     Starting wfcs are  272 randomized atomic wfcs

     total cpu time spent up to now is        5.6 secs

     Self-consistent Calculation

     iteration #  1     ecut=    10.00 Ry     beta= 0.40
     CG style diagonalization
     ethr =  1.00E-02,  avg # of iterations =  2.9
 --- enter write_ns ---
 LDA+U parameters:
U( 3)     =  4.50000000
U( 4)     =  4.50000000
atom    9   Tr[ns(na)] (up, down, total) =   0.51043  0.25028  0.76071
   spin  1
    eigenvalues: 
  0.058  0.102  0.108  0.121  0.121
    eigenvectors:
  0.000  1.000  0.000  0.000  0.000
  0.000  0.000  0.000  0.500  0.500
  0.000  0.000  0.000  0.500  0.500
  0.000  0.000  1.000  0.000  0.000
  1.000  0.000  0.000  0.000  0.000
    occupations:
  0.102 -0.000 -0.000 -0.000 -0.000
 -0.000  0.121  0.000 -0.000  0.000
 -0.000  0.000  0.121  0.000  0.000
 -0.000 -0.000  0.000  0.108 -0.000
 -0.000  0.000  0.000 -0.000  0.058
   spin  2
    eigenvalues: 
  0.031  0.041  0.041  0.066  0.070
    eigenvectors:
  0.000  0.000  0.000  0.000  1.000
  0.000  0.500  0.500  0.000  0.000
  0.000  0.500  0.500  0.000  0.000
  0.000  0.000  0.000  1.000  0.000
  1.000  0.000  0.000  0.000  0.000
    occupations:
  0.070 -0.000 -0.000 -0.000 -0.000
 -0.000  0.041  0.000 -0.000 -0.000
 -0.000  0.000  0.041  0.000 -0.000
 -0.000 -0.000  0.000  0.066 -0.000
 -0.000 -0.000 -0.000 -0.000  0.031
atomic mag. moment =   0.26015
atom   10   Tr[ns(na)] (up, down, total) =   0.51043  0.25028  0.76071
   spin  1
    eigenvalues: 
  0.058  0.102  0.108  0.121  0.121
    eigenvectors:
  0.000  1.000  0.000  0.000  0.000
  0.000  0.000  0.000  0.500  0.500
  0.000  0.000  0.000  0.500  0.500
  0.000  0.000  1.000  0.000  0.000
  1.000  0.000  0.000  0.000  0.000
    occupations:
  0.102  0.000  0.000 -0.000 -0.000
  0.000  0.121  0.000  0.000 -0.000
  0.000  0.000  0.121 -0.000 -0.000
 -0.000  0.000 -0.000  0.108 -0.000
 -0.000 -0.000 -0.000 -0.000  0.058
   spin  2
    eigenvalues: 
  0.031  0.041  0.041  0.066  0.070
    eigenvectors:
  0.000  0.000  0.000  0.000  1.000
  0.000  0.500  0.500  0.000  0.000
  0.000  0.500  0.500  0.000  0.000
  0.000  0.000  0.000  1.000  0.000
  1.000  0.000  0.000  0.000  0.000
    occupations:
  0.070  0.000  0.000 -0.000 -0.000
  0.000  0.041  0.000  0.000  0.000
  0.000  0.000  0.041 -0.000  0.000
 -0.000  0.000 -0.000  0.066 -0.000
 -0.000  0.000  0.000 -0.000  0.031
atomic mag. moment =   0.26015
atom   11   Tr[ns(na)] (up, down, total) =   0.25024  0.51034  0.76058
   spin  1
    eigenvalues: 
  0.031  0.041  0.041  0.066  0.070
    eigenvectors:
  0.000  0.000  0.000  0.000  1.000
  0.000  0.500  0.500  0.000  0.000
  0.000  0.500  0.500  0.000  0.000
  0.000  0.000  0.000  1.000  0.000
  1.000  0.000  0.000  0.000  0.000
    occupations:
  0.070  0.000 -0.000 -0.000  0.000
  0.000  0.041 -0.000  0.000 -0.000
 -0.000 -0.000  0.041  0.000  0.000
 -0.000  0.000  0.000  0.066 -0.000
  0.000 -0.000  0.000 -0.000  0.031
   spin  2
    eigenvalues: 
  0.058  0.102  0.108  0.121  0.121
    eigenvectors:
  0.000  1.000  0.000  0.000  0.000
  0.000  0.000  0.000  0.500  0.500
  0.000  0.000  0.000  0.500  0.500
  0.000  0.000  1.000  0.000  0.000
  1.000  0.000  0.000  0.000  0.000
    occupations:
  0.102 -0.000  0.000 -0.000  0.000
 -0.000  0.121  0.000  0.000  0.000
  0.000  0.000  0.121  0.000 -0.000
 -0.000  0.000  0.000  0.108 -0.000
  0.000  0.000 -0.000 -0.000  0.058
atomic mag. moment =  -0.26010
atom   12   Tr[ns(na)] (up, down, total) =   0.25024  0.51034  0.76058
   spin  1
    eigenvalues: 
  0.031  0.041  0.041  0.066  0.070
    eigenvectors:
  0.000  0.000  0.000  0.000  1.000
  0.000  0.500  0.500  0.000  0.000
  0.000  0.500  0.500  0.000  0.000
  0.000  0.000  0.000  1.000  0.000
  1.000  0.000  0.000  0.000  0.000
    occupations:
  0.070  0.000 -0.000 -0.000  0.000
  0.000  0.041 -0.000  0.000 -0.000
 -0.000 -0.000  0.041  0.000  0.000
 -0.000  0.000  0.000  0.066 -0.000
  0.000 -0.000  0.000 -0.000  0.031
   spin  2
    eigenvalues: 
  0.058  0.102  0.108  0.121  0.121
    eigenvectors:
  0.000  1.000  0.000  0.000  0.000
  0.000  0.000  0.000  0.500  0.500
  0.000  0.000  0.000  0.500  0.500
  0.000  0.000  1.000  0.000  0.000
  1.000  0.000  0.000  0.000  0.000
    occupations:
  0.102 -0.000  0.000 -0.000  0.000
 -0.000  0.121  0.000  0.000  0.000
  0.000  0.000  0.121  0.000 -0.000
 -0.000  0.000  0.000  0.108 -0.000
  0.000  0.000 -0.000 -0.000  0.058
atomic mag. moment =  -0.26010
atom   13   Tr[ns(na)] (up, down, total) =   0.51043  0.25028  0.76071
   spin  1
    eigenvalues: 
  0.058  0.102  0.108  0.121  0.121
    eigenvectors:
  0.000  1.000  0.000  0.000  0.000
  0.000  0.000  0.000  0.500  0.500
  0.000  0.000  0.000  0.500  0.500
  0.000  0.000  1.000  0.000  0.000
  1.000  0.000  0.000  0.000  0.000
    occupations:
  0.102  0.000  0.000 -0.000 -0.000
  0.000  0.121  0.000  0.000 -0.000
  0.000  0.000  0.121 -0.000 -0.000
 -0.000  0.000 -0.000  0.108 -0.000
 -0.000 -0.000 -0.000 -0.000  0.058
   spin  2
    eigenvalues: 
  0.031  0.041  0.041  0.066  0.070
    eigenvectors:
  0.000  0.000  0.000  0.000  1.000
  0.000  0.500  0.500  0.000  0.000
  0.000  0.500  0.500  0.000  0.000
  0.000  0.000  0.000  1.000  0.000
  1.000  0.000  0.000  0.000  0.000
    occupations:
  0.070  0.000  0.000 -0.000 -0.000
  0.000  0.041  0.000  0.000  0.000
  0.000  0.000  0.041 -0.000  0.000
 -0.000  0.000 -0.000  0.066 -0.000
 -0.000  0.000  0.000 -0.000  0.031
atomic mag. moment =   0.26015
atom   14   Tr[ns(na)] (up, down, total) =   0.51043  0.25028  0.76071
   spin  1
    eigenvalues: 
  0.058  0.102  0.108  0.121  0.121
    eigenvectors:
  0.000  1.000  0.000  0.000  0.000
  0.000  0.000  0.000  0.500  0.500
  0.000  0.000  0.000  0.500  0.500
  0.000  0.000  1.000  0.000  0.000
  1.000  0.000  0.000  0.000  0.000
    occupations:
  0.102 -0.000 -0.000 -0.000 -0.000
 -0.000  0.121  0.000 -0.000  0.000
 -0.000  0.000  0.121  0.000  0.000
 -0.000 -0.000  0.000  0.108 -0.000
 -0.000  0.000  0.000 -0.000  0.058
   spin  2
    eigenvalues: 
  0.031  0.041  0.041  0.066  0.070
    eigenvectors:
  0.000  0.000  0.000  0.000  1.000
  0.000  0.500  0.500  0.000  0.000
  0.000  0.500  0.500  0.000  0.000
  0.000  0.000  0.000  1.000  0.000
  1.000  0.000  0.000  0.000  0.000
    occupations:
  0.070 -0.000 -0.000 -0.000 -0.000
 -0.000  0.041  0.000 -0.000 -0.000
 -0.000  0.000  0.041  0.000 -0.000
 -0.000 -0.000  0.000  0.066 -0.000
 -0.000 -0.000 -0.000 -0.000  0.031
atomic mag. moment =   0.26015
atom   15   Tr[ns(na)] (up, down, total) =   0.25024  0.51034  0.76058
   spin  1
    eigenvalues: 
  0.031  0.041  0.041  0.066  0.070
    eigenvectors:
  0.000  0.000  0.000  0.000  1.000
  0.000  0.500  0.500  0.000  0.000
  0.000  0.500  0.500  0.000  0.000
  0.000  0.000  0.000  1.000  0.000
  1.000  0.000  0.000  0.000  0.000
    occupations:
  0.070 -0.000  0.000 -0.000  0.000
 -0.000  0.041 -0.000 -0.000  0.000
  0.000 -0.000  0.041 -0.000 -0.000
 -0.000 -0.000 -0.000  0.066 -0.000
  0.000  0.000 -0.000 -0.000  0.031
   spin  2
    eigenvalues: 
  0.058  0.102  0.108  0.121  0.121
    eigenvectors:
  0.000  1.000  0.000  0.000  0.000
  0.000  0.000  0.000  0.500  0.500
  0.000  0.000  0.000  0.500  0.500
  0.000  0.000  1.000  0.000  0.000
  1.000  0.000  0.000  0.000  0.000
    occupations:
  0.102  0.000 -0.000 -0.000  0.000
  0.000  0.121  0.000 -0.000 -0.000
 -0.000  0.000  0.121 -0.000  0.000
 -0.000 -0.000 -0.000  0.108 -0.000
  0.000 -0.000  0.000 -0.000  0.058
atomic mag. moment =  -0.26010
atom   16   Tr[ns(na)] (up, down, total) =   0.25024  0.51034  0.76058
   spin  1
    eigenvalues: 
  0.031  0.041  0.041  0.066  0.070
    eigenvectors:
  0.000  0.000  0.000  0.000  1.000
  0.000  0.500  0.500  0.000  0.000
  0.000  0.500  0.500  0.000  0.000
  0.000  0.000  0.000  1.000  0.000
  1.000  0.000  0.000  0.000  0.000
    occupations:
  0.070 -0.000  0.000 -0.000  0.000
 -0.000  0.041 -0.000 -0.000  0.000
  0.000 -0.000  0.041 -0.000 -0.000
 -0.000 -0.000 -0.000  0.066 -0.000
  0.000  0.000 -0.000 -0.000  0.031
   spin  2
    eigenvalues: 
  0.058  0.102  0.108  0.121  0.121
    eigenvectors:
  0.000  1.000  0.000  0.000  0.000
  0.000  0.000  0.000  0.500  0.500
  0.000  0.000  0.000  0.500  0.500
  0.000  0.000  1.000  0.000  0.000
  1.000  0.000  0.000  0.000  0.000
    occupations:
  0.102  0.000 -0.000 -0.000  0.000
  0.000  0.121  0.000 -0.000 -0.000
 -0.000  0.000  0.121 -0.000  0.000
 -0.000 -0.000 -0.000  0.108 -0.000
  0.000 -0.000  0.000 -0.000  0.058
atomic mag. moment =  -0.26010
N of occupied +U levels =    6.085126
 --- exit write_ns ---

     negative rho (up, down):  1.774E-01 1.774E-01
 --- in v_hubbard ---
Hubbard energy    0.9157
 -------

     total cpu time spent up to now is       15.1 secs

     total energy              =   -3940.55616230 Ry
     estimated scf accuracy    <     325.60321189 Ry

     total magnetization       =    -0.00 Bohr mag/cell
     absolute magnetization    =     8.45 Bohr mag/cell

     iteration #  2     ecut=    10.00 Ry     beta= 0.40
     CG style diagonalization
     ethr =  1.00E-02,  avg # of iterations =  4.4
 --- enter write_ns ---
 LDA+U parameters:
U( 3)     =  4.50000000
U( 4)     =  4.50000000
atom    9   Tr[ns(na)] (up, down, total) =   2.05997  1.52365  3.58362
   spin  1
    eigenvalues: 
  0.392  0.414  0.416  0.418  0.419
    eigenvectors:
  0.000  0.000  0.001  0.000  0.999
  0.000  0.000  0.500  0.500  0.000
  0.000  0.000  0.500  0.500  0.000
  1.000  0.000  0.000  0.000  0.000
  0.000  1.000  0.000  0.000  0.000
    occupations:
  0.419  0.000  0.000 -0.000 -0.000
  0.000  0.417 -0.001  0.000 -0.000
  0.000 -0.001  0.417 -0.000 -0.000
 -0.000  0.000 -0.000  0.392 -0.000
 -0.000 -0.000 -0.000 -0.000  0.414
   spin  2
    eigenvalues: 
  0.284  0.289  0.297  0.325  0.330
    eigenvectors:
  0.994  0.000  0.005  0.000  0.000
  0.000  0.000  0.001  0.499  0.500
  0.000  0.000  0.001  0.499  0.500
  0.000  1.000  0.000  0.000  0.000
  0.005  0.000  0.993  0.002  0.000
    occupations:
  0.284 -0.001 -0.001 -0.000 -0.001
 -0.001  0.327 -0.002  0.000  0.001
 -0.001 -0.002  0.327 -0.000  0.001
 -0.000  0.000 -0.000  0.289 -0.000
 -0.001  0.001  0.001 -0.000  0.297
atomic mag. moment =   0.53631
atom   10   Tr[ns(na)] (up, down, total) =   2.05997  1.52365  3.58362
   spin  1
    eigenvalues: 
  0.392  0.414  0.416  0.418  0.419
    eigenvectors:
  0.000  0.000  0.001  0.000  0.999
  0.000  0.000  0.500  0.500  0.000
  0.000  0.000  0.500  0.500  0.000
  1.000  0.000  0.000  0.000  0.000
  0.000  1.000  0.000  0.000  0.000
    occupations:
  0.419 -0.000 -0.000 -0.000 -0.000
 -0.000  0.417 -0.001 -0.000  0.000
 -0.000 -0.001  0.417  0.000  0.000
 -0.000 -0.000  0.000  0.392 -0.000
 -0.000  0.000  0.000 -0.000  0.414
   spin  2
    eigenvalues: 
  0.284  0.289  0.297  0.325  0.330
    eigenvectors:
  0.994  0.000  0.005  0.000  0.000
  0.000  0.000  0.001  0.499  0.500
  0.000  0.000  0.001  0.499  0.500
  0.000  1.000  0.000  0.000  0.000
  0.005  0.000  0.993  0.002  0.000
    occupations:
  0.284  0.001  0.001 -0.000 -0.001
  0.001  0.327 -0.002 -0.000 -0.001
  0.001 -0.002  0.327  0.000 -0.001
 -0.000 -0.000  0.000  0.289 -0.000
 -0.001 -0.001 -0.001 -0.000  0.297
atomic mag. moment =   0.53631
atom   11   Tr[ns(na)] (up, down, total) =   1.48149  2.06836  3.54985
   spin  1
    eigenvalues: 
  0.286  0.287  0.290  0.304  0.315
    eigenvectors:
  0.985  0.000  0.015  0.001  0.000
  0.000  0.001  0.000  0.500  0.499
  0.000  0.001  0.000  0.500  0.499
  0.000  0.997  0.000  0.000  0.003
  0.015  0.000  0.985  0.000  0.000
    occupations:
  0.286  0.000 -0.000 -0.000 -0.000
  0.000  0.309  0.005  0.001  0.000
 -0.000  0.005  0.309  0.001 -0.000
 -0.000  0.001  0.001  0.287 -0.000
 -0.000  0.000 -0.000 -0.000  0.290
   spin  2
    eigenvalues: 
  0.397  0.412  0.418  0.420  0.420
    eigenvectors:
  0.000  0.001  0.099  0.901  0.000
  0.000  0.001  0.449  0.050  0.500
  0.000  0.001  0.449  0.050  0.500
  1.000  0.000  0.000  0.000  0.000
  0.000  0.997  0.002  0.000  0.000
    occupations:
  0.420  0.000 -0.000 -0.000  0.000
  0.000  0.419  0.001  0.000 -0.000
 -0.000  0.001  0.419  0.000  0.000
 -0.000  0.000  0.000  0.397 -0.000
  0.000 -0.000  0.000 -0.000  0.412
atomic mag. moment =  -0.58687
atom   12   Tr[ns(na)] (up, down, total) =   1.48149  2.06836  3.54985
   spin  1
    eigenvalues: 
  0.286  0.287  0.290  0.304  0.315
    eigenvectors:
  0.985  0.000  0.015  0.001  0.000
  0.000  0.001  0.000  0.500  0.499
  0.000  0.001  0.000  0.500  0.499
  0.000  0.997  0.000  0.000  0.003
  0.015  0.000  0.985  0.000  0.000
    occupations:
  0.286  0.000 -0.000 -0.000 -0.000
  0.000  0.309  0.005  0.001  0.000
 -0.000  0.005  0.309  0.001 -0.000
 -0.000  0.001  0.001  0.287 -0.000
 -0.000  0.000 -0.000 -0.000  0.290
   spin  2
    eigenvalues: 
  0.397  0.412  0.418  0.420  0.420
    eigenvectors:
  0.000  0.001  0.099  0.901  0.000
  0.000  0.001  0.449  0.050  0.500
  0.000  0.001  0.449  0.050  0.500
  1.000  0.000  0.000  0.000  0.000
  0.000  0.997  0.002  0.000  0.000
    occupations:
  0.420  0.000 -0.000 -0.000  0.000
  0.000  0.419  0.001  0.000 -0.000
 -0.000  0.001  0.419  0.000  0.000
 -0.000  0.000  0.000  0.397 -0.000
  0.000 -0.000  0.000 -0.000  0.412
atomic mag. moment =  -0.58687
atom   13   Tr[ns(na)] (up, down, total) =   2.05997  1.52365  3.58362
   spin  1
    eigenvalues: 
  0.392  0.414  0.416  0.418  0.419
    eigenvectors:
  0.000  0.000  0.001  0.000  0.999
  0.000  0.000  0.500  0.500  0.000
  0.000  0.000  0.500  0.500  0.000
  1.000  0.000  0.000  0.000  0.000
  0.000  1.000  0.000  0.000  0.000
    occupations:
  0.419 -0.000 -0.000 -0.000 -0.000
 -0.000  0.417 -0.001 -0.000  0.000
 -0.000 -0.001  0.417  0.000  0.000
 -0.000 -0.000  0.000  0.392 -0.000
 -0.000  0.000  0.000 -0.000  0.414
   spin  2
    eigenvalues: 
  0.284  0.289  0.297  0.325  0.330
    eigenvectors:
  0.994  0.000  0.005  0.000  0.000
  0.000  0.000  0.001  0.499  0.500
  0.000  0.000  0.001  0.499  0.500
  0.000  1.000  0.000  0.000  0.000
  0.005  0.000  0.993  0.002  0.000
    occupations:
  0.284  0.001  0.001 -0.000 -0.001
  0.001  0.327 -0.002 -0.000 -0.001
  0.001 -0.002  0.327  0.000 -0.001
 -0.000 -0.000  0.000  0.289 -0.000
 -0.001 -0.001 -0.001 -0.000  0.297
atomic mag. moment =   0.53631
atom   14   Tr[ns(na)] (up, down, total) =   2.05997  1.52365  3.58362
   spin  1
    eigenvalues: 
  0.392  0.414  0.416  0.418  0.419
    eigenvectors:
  0.000  0.000  0.001  0.000  0.999
  0.000  0.000  0.500  0.500  0.000
  0.000  0.000  0.500  0.500  0.000
  1.000  0.000  0.000  0.000  0.000
  0.000  1.000  0.000  0.000  0.000
    occupations:
  0.419  0.000  0.000 -0.000 -0.000
  0.000  0.417 -0.001  0.000 -0.000
  0.000 -0.001  0.417 -0.000 -0.000
 -0.000  0.000 -0.000  0.392 -0.000
 -0.000 -0.000 -0.000 -0.000  0.414
   spin  2
    eigenvalues: 
  0.284  0.289  0.297  0.325  0.330
    eigenvectors:
  0.994  0.000  0.005  0.000  0.000
  0.000  0.000  0.001  0.499  0.500
  0.000  0.000  0.001  0.499  0.500
  0.000  1.000  0.000  0.000  0.000
  0.005  0.000  0.993  0.002  0.000
    occupations:
  0.284 -0.001 -0.001 -0.000 -0.001
 -0.001  0.327 -0.002  0.000  0.001
 -0.001 -0.002  0.327 -0.000  0.001
 -0.000  0.000 -0.000  0.289 -0.000
 -0.001  0.001  0.001 -0.000  0.297
atomic mag. moment =   0.53631
atom   15   Tr[ns(na)] (up, down, total) =   1.48149  2.06836  3.54985
   spin  1
    eigenvalues: 
  0.286  0.287  0.290  0.304  0.315
    eigenvectors:
  0.985  0.000  0.015  0.001  0.000
  0.000  0.001  0.000  0.500  0.499
  0.000  0.001  0.000  0.500  0.499
  0.000  0.997  0.000  0.000  0.003
  0.015  0.000  0.985  0.000  0.000
    occupations:
  0.286 -0.000  0.000 -0.000 -0.000
 -0.000  0.309  0.005 -0.001 -0.000
  0.000  0.005  0.309 -0.001  0.000
 -0.000 -0.001 -0.001  0.287 -0.000
 -0.000 -0.000  0.000 -0.000  0.290
   spin  2
    eigenvalues: 
  0.397  0.412  0.418  0.420  0.420
    eigenvectors:
  0.000  0.001  0.099  0.901  0.000
  0.000  0.001  0.449  0.050  0.500
  0.000  0.001  0.449  0.050  0.500
  1.000  0.000  0.000  0.000  0.000
  0.000  0.997  0.002  0.000  0.000
    occupations:
  0.420 -0.000  0.000 -0.000  0.000
 -0.000  0.419  0.001 -0.000  0.000
  0.000  0.001  0.419 -0.000 -0.000
 -0.000 -0.000 -0.000  0.397 -0.000
  0.000  0.000 -0.000 -0.000  0.412
atomic mag. moment =  -0.58687
atom   16   Tr[ns(na)] (up, down, total) =   1.48149  2.06836  3.54985
   spin  1
    eigenvalues: 
  0.286  0.287  0.290  0.304  0.315
    eigenvectors:
  0.985  0.000  0.015  0.001  0.000
  0.000  0.001  0.000  0.500  0.499
  0.000  0.001  0.000  0.500  0.499
  0.000  0.997  0.000  0.000  0.003
  0.015  0.000  0.985  0.000  0.000
    occupations:
  0.286 -0.000  0.000 -0.000 -0.000
 -0.000  0.309  0.005 -0.001 -0.000
  0.000  0.005  0.309 -0.001  0.000
 -0.000 -0.001 -0.001  0.287 -0.000
 -0.000 -0.000  0.000 -0.000  0.290
   spin  2
    eigenvalues: 
  0.397  0.412  0.418  0.420  0.420
    eigenvectors:
  0.000  0.001  0.099  0.901  0.000
  0.000  0.001  0.449  0.050  0.500
  0.000  0.001  0.449  0.050  0.500
  1.000  0.000  0.000  0.000  0.000
  0.000  0.997  0.002  0.000  0.000
    occupations:
  0.420 -0.000  0.000 -0.000  0.000
 -0.000  0.419  0.001 -0.000  0.000
  0.000  0.001  0.419 -0.000 -0.000
 -0.000 -0.000 -0.000  0.397 -0.000
  0.000  0.000 -0.000 -0.000  0.412
atomic mag. moment =  -0.58687
N of occupied +U levels =   28.533872
 --- exit write_ns ---

     negative rho (up, down):  1.575E-01 1.576E-01
 --- in v_hubbard ---
Hubbard energy    1.8939
 -------

     total cpu time spent up to now is       28.7 secs

     total energy              =   -3962.68225108 Ry
     estimated scf accuracy    <      83.79906771 Ry

     total magnetization       =    -1.98 Bohr mag/cell
     absolute magnetization    =    16.50 Bohr mag/cell

     iteration #  3     ecut=    10.00 Ry     beta= 0.40
     CG style diagonalization
     ethr =  1.00E-02,  avg # of iterations =  3.3
 --- enter write_ns ---
 LDA+U parameters:
U( 3)     =  4.50000000
U( 4)     =  4.50000000
atom    9   Tr[ns(na)] (up, down, total) =   1.68385  1.06581  2.74966
   spin  1
    eigenvalues: 
  0.304  0.315  0.326  0.344  0.394
    eigenvectors:
  0.000  0.000  0.000  0.000  1.000
  0.500  0.490  0.000  0.010  0.000
  0.500  0.490  0.000  0.010  0.000
  0.000  0.021  0.000  0.979  0.000
  0.001  0.000  0.999  0.000  0.000
    occupations:
  0.394  0.000  0.000 -0.000 -0.000
  0.000  0.310 -0.006  0.003 -0.000
  0.000 -0.006  0.310 -0.003 -0.000
 -0.000  0.003 -0.003  0.344 -0.000
 -0.000 -0.000 -0.000 -0.000  0.326
   spin  2
    eigenvalues: 
  0.174  0.186  0.206  0.244  0.256
    eigenvectors:
  0.985  0.015  0.000  0.000  0.000
  0.000  0.000  0.000  0.500  0.500
  0.000  0.000  0.000  0.500  0.500
  0.000  0.000  0.999  0.001  0.000
  0.015  0.985  0.000  0.000  0.000
    occupations:
  0.175  0.000  0.000 -0.000 -0.001
  0.000  0.250  0.006  0.001 -0.000
  0.000  0.006  0.250 -0.001 -0.000
 -0.000  0.001 -0.001  0.206 -0.000
 -0.001 -0.000 -0.000 -0.000  0.186
atomic mag. moment =   0.61803
atom   10   Tr[ns(na)] (up, down, total) =   1.68385  1.06581  2.74966
   spin  1
    eigenvalues: 
  0.304  0.315  0.326  0.344  0.394
    eigenvectors:
  0.000  0.000  0.000  0.000  1.000
  0.500  0.490  0.000  0.010  0.000
  0.500  0.490  0.000  0.010  0.000
  0.000  0.021  0.000  0.979  0.000
  0.001  0.000  0.999  0.000  0.000
    occupations:
  0.394 -0.000 -0.000 -0.000 -0.000
 -0.000  0.310 -0.006 -0.003  0.000
 -0.000 -0.006  0.310  0.003  0.000
 -0.000 -0.003  0.003  0.344 -0.000
 -0.000  0.000  0.000 -0.000  0.326
   spin  2
    eigenvalues: 
  0.174  0.186  0.206  0.244  0.256
    eigenvectors:
  0.985  0.015  0.000  0.000  0.000
  0.000  0.000  0.000  0.500  0.500
  0.000  0.000  0.000  0.500  0.500
  0.000  0.000  0.999  0.001  0.000
  0.015  0.985  0.000  0.000  0.000
    occupations:
  0.175 -0.000 -0.000 -0.000 -0.001
 -0.000  0.250  0.006 -0.001  0.000
 -0.000  0.006  0.250  0.001  0.000
 -0.000 -0.001  0.001  0.206 -0.000
 -0.001  0.000  0.000 -0.000  0.186
atomic mag. moment =   0.61803
atom   11   Tr[ns(na)] (up, down, total) =   1.00283  1.73749  2.74031
   spin  1
    eigenvalues: 
  0.181  0.185  0.189  0.210  0.237
    eigenvectors:
  0.000  1.000  0.000  0.000  0.000
  0.001  0.000  0.002  0.499  0.498
  0.001  0.000  0.002  0.499  0.498
  0.000  0.000  0.996  0.000  0.004
  0.998  0.000  0.000  0.002  0.000
    occupations:
  0.185 -0.000  0.000 -0.000  0.000
 -0.000  0.223  0.013  0.002  0.001
  0.000  0.013  0.223  0.002 -0.001
 -0.000  0.002  0.002  0.189 -0.000
  0.000  0.001 -0.001 -0.000  0.181
   spin  2
    eigenvalues: 
  0.323  0.328  0.328  0.357  0.402
    eigenvectors:
  0.000  0.000  0.000  0.000  1.000
  0.452  0.500  0.048  0.000  0.000
  0.452  0.500  0.048  0.000  0.000
  0.000  0.000  0.000  1.000  0.000
  0.097  0.000  0.903  0.000  0.000
    occupations:
  0.402  0.000 -0.000 -0.000  0.000
  0.000  0.326  0.002  0.000 -0.001
 -0.000  0.002  0.326  0.000  0.001
 -0.000  0.000  0.000  0.357 -0.000
  0.000 -0.001  0.001 -0.000  0.328
atomic mag. moment =  -0.73466
atom   12   Tr[ns(na)] (up, down, total) =   1.00283  1.73749  2.74031
   spin  1
    eigenvalues: 
  0.181  0.185  0.189  0.210  0.237
    eigenvectors:
  0.000  1.000  0.000  0.000  0.000
  0.001  0.000  0.002  0.499  0.498
  0.001  0.000  0.002  0.499  0.498
  0.000  0.000  0.996  0.000  0.004
  0.998  0.000  0.000  0.002  0.000
    occupations:
  0.185 -0.000  0.000 -0.000  0.000
 -0.000  0.223  0.013  0.002  0.001
  0.000  0.013  0.223  0.002 -0.001
 -0.000  0.002  0.002  0.189 -0.000
  0.000  0.001 -0.001 -0.000  0.181
   spin  2
    eigenvalues: 
  0.323  0.328  0.328  0.357  0.402
    eigenvectors:
  0.000  0.000  0.000  0.000  1.000
  0.452  0.500  0.048  0.000  0.000
  0.452  0.500  0.048  0.000  0.000
  0.000  0.000  0.000  1.000  0.000
  0.097  0.000  0.903  0.000  0.000
    occupations:
  0.402  0.000 -0.000 -0.000  0.000
  0.000  0.326  0.002  0.000 -0.001
 -0.000  0.002  0.326  0.000  0.001
 -0.000  0.000  0.000  0.357 -0.000
  0.000 -0.001  0.001 -0.000  0.328
atomic mag. moment =  -0.73466
atom   13   Tr[ns(na)] (up, down, total) =   1.68385  1.06581  2.74966
   spin  1
    eigenvalues: 
  0.304  0.315  0.326  0.344  0.394
    eigenvectors:
  0.000  0.000  0.000  0.000  1.000
  0.500  0.490  0.000  0.010  0.000
  0.500  0.490  0.000  0.010  0.000
  0.000  0.021  0.000  0.979  0.000
  0.001  0.000  0.999  0.000  0.000
    occupations:
  0.394 -0.000 -0.000 -0.000 -0.000
 -0.000  0.310 -0.006 -0.003  0.000
 -0.000 -0.006  0.310  0.003  0.000
 -0.000 -0.003  0.003  0.344 -0.000
 -0.000  0.000  0.000 -0.000  0.326
   spin  2
    eigenvalues: 
  0.174  0.186  0.206  0.244  0.256
    eigenvectors:
  0.985  0.015  0.000  0.000  0.000
  0.000  0.000  0.000  0.500  0.500
  0.000  0.000  0.000  0.500  0.500
  0.000  0.000  0.999  0.001  0.000
  0.015  0.985  0.000  0.000  0.000
    occupations:
  0.175 -0.000 -0.000 -0.000 -0.001
 -0.000  0.250  0.006 -0.001  0.000
 -0.000  0.006  0.250  0.001  0.000
 -0.000 -0.001  0.001  0.206 -0.000
 -0.001  0.000  0.000 -0.000  0.186
atomic mag. moment =   0.61803
atom   14   Tr[ns(na)] (up, down, total) =   1.68385  1.06581  2.74966
   spin  1
    eigenvalues: 
  0.304  0.315  0.326  0.344  0.394
    eigenvectors:
  0.000  0.000  0.000  0.000  1.000
  0.500  0.490  0.000  0.010  0.000
  0.500  0.490  0.000  0.010  0.000
  0.000  0.021  0.000  0.979  0.000
  0.001  0.000  0.999  0.000  0.000
    occupations:
  0.394  0.000  0.000 -0.000 -0.000
  0.000  0.310 -0.006  0.003 -0.000
  0.000 -0.006  0.310 -0.003 -0.000
 -0.000  0.003 -0.003  0.344 -0.000
 -0.000 -0.000 -0.000 -0.000  0.326
   spin  2
    eigenvalues: 
  0.174  0.186  0.206  0.244  0.256
    eigenvectors:
  0.985  0.015  0.000  0.000  0.000
  0.000  0.000  0.000  0.500  0.500
  0.000  0.000  0.000  0.500  0.500
  0.000  0.000  0.999  0.001  0.000
  0.015  0.985  0.000  0.000  0.000
    occupations:
  0.175  0.000  0.000 -0.000 -0.001
  0.000  0.250  0.006  0.001 -0.000
  0.000  0.006  0.250 -0.001 -0.000
 -0.000  0.001 -0.001  0.206 -0.000
 -0.001 -0.000 -0.000 -0.000  0.186
atomic mag. moment =   0.61803
atom   15   Tr[ns(na)] (up, down, total) =   1.00283  1.73749  2.74031
   spin  1
    eigenvalues: 
  0.181  0.185  0.189  0.210  0.237
    eigenvectors:
  0.000  1.000  0.000  0.000  0.000
  0.001  0.000  0.002  0.499  0.498
  0.001  0.000  0.002  0.499  0.498
  0.000  0.000  0.996  0.000  0.004
  0.998  0.000  0.000  0.002  0.000
    occupations:
  0.185  0.000 -0.000 -0.000  0.000
  0.000  0.223  0.013 -0.002 -0.001
 -0.000  0.013  0.223 -0.002  0.001
 -0.000 -0.002 -0.002  0.189 -0.000
  0.000 -0.001  0.001 -0.000  0.181
   spin  2
    eigenvalues: 
  0.323  0.328  0.328  0.357  0.402
    eigenvectors:
  0.000  0.000  0.000  0.000  1.000
  0.452  0.500  0.048  0.000  0.000
  0.452  0.500  0.048  0.000  0.000
  0.000  0.000  0.000  1.000  0.000
  0.097  0.000  0.903  0.000  0.000
    occupations:
  0.402 -0.000  0.000 -0.000  0.000
 -0.000  0.326  0.002 -0.000  0.001
  0.000  0.002  0.326 -0.000 -0.001
 -0.000 -0.000 -0.000  0.357 -0.000
  0.000  0.001 -0.001 -0.000  0.328
atomic mag. moment =  -0.73466
atom   16   Tr[ns(na)] (up, down, total) =   1.00283  1.73749  2.74031
   spin  1
    eigenvalues: 
  0.181  0.185  0.189  0.210  0.237
    eigenvectors:
  0.000  1.000  0.000  0.000  0.000
  0.001  0.000  0.002  0.499  0.498
  0.001  0.000  0.002  0.499  0.498
  0.000  0.000  0.996  0.000  0.004
  0.998  0.000  0.000  0.002  0.000
    occupations:
  0.185  0.000 -0.000 -0.000  0.000
  0.000  0.223  0.013 -0.002 -0.001
 -0.000  0.013  0.223 -0.002  0.001
 -0.000 -0.002 -0.002  0.189 -0.000
  0.000 -0.001  0.001 -0.000  0.181
   spin  2
    eigenvalues: 
  0.323  0.328  0.328  0.357  0.402
    eigenvectors:
  0.000  0.000  0.000  0.000  1.000
  0.452  0.500  0.048  0.000  0.000
  0.452  0.500  0.048  0.000  0.000
  0.000  0.000  0.000  1.000  0.000
  0.097  0.000  0.903  0.000  0.000
    occupations:
  0.402 -0.000  0.000 -0.000  0.000
 -0.000  0.326  0.002 -0.000  0.001
  0.000  0.002  0.326 -0.000 -0.001
 -0.000 -0.000 -0.000  0.357 -0.000
  0.000  0.001 -0.001 -0.000  0.328
atomic mag. moment =  -0.73466
N of occupied +U levels =   21.959895
 --- exit write_ns ---

     negative rho (up, down):  1.461E-01 1.469E-01
 --- in v_hubbard ---
Hubbard energy    2.5396
 -------

     total cpu time spent up to now is       38.8 secs

     total energy              =   -3960.26603872 Ry
     estimated scf accuracy    <      20.54682728 Ry

     total magnetization       =    -2.03 Bohr mag/cell
     absolute magnetization    =    15.72 Bohr mag/cell

     iteration #  4     ecut=    10.00 Ry     beta= 0.40
     CG style diagonalization
     ethr =  5.24E-03,  avg # of iterations =  3.3
 --- enter write_ns ---
 LDA+U parameters:
U( 3)     =  4.50000000
U( 4)     =  4.50000000
atom    9   Tr[ns(na)] (up, down, total) =   1.74382  1.27764  3.02146
   spin  1
    eigenvalues: 
  0.321  0.322  0.324  0.379  0.397
    eigenvectors:
  0.000  0.000  0.000  0.000  1.000
  0.497  0.002  0.500  0.000  0.000
  0.497  0.002  0.500  0.000  0.000
  0.000  0.000  0.000  1.000  0.000
  0.005  0.995  0.000  0.000  0.000
    occupations:
  0.397 -0.000 -0.000 -0.000  0.000
 -0.000  0.322 -0.002  0.000 -0.000
 -0.000 -0.002  0.322 -0.000 -0.000
 -0.000  0.000 -0.000  0.379 -0.000
  0.000 -0.000 -0.000 -0.000  0.322
   spin  2
    eigenvalues: 
  0.213  0.254  0.269  0.270  0.272
    eigenvectors:
  0.000  0.000  0.000  0.983  0.017
  0.000  0.002  0.498  0.008  0.492
  0.000  0.002  0.498  0.008  0.492
  0.000  0.995  0.005  0.000  0.000
  1.000  0.000  0.000  0.000  0.000
    occupations:
  0.270  0.000  0.000 -0.000 -0.001
  0.000  0.270  0.002 -0.001 -0.000
  0.000  0.002  0.270  0.001 -0.000
 -0.000 -0.001  0.001  0.254 -0.000
 -0.001 -0.000 -0.000 -0.000  0.213
atomic mag. moment =   0.46618
atom   10   Tr[ns(na)] (up, down, total) =   1.74382  1.27764  3.02146
   spin  1
    eigenvalues: 
  0.321  0.322  0.324  0.379  0.397
    eigenvectors:
  0.000  0.000  0.000  0.000  1.000
  0.497  0.002  0.500  0.000  0.000
  0.497  0.002  0.500  0.000  0.000
  0.000  0.000  0.000  1.000  0.000
  0.005  0.995  0.000  0.000  0.000
    occupations:
  0.397  0.000  0.000 -0.000  0.000
  0.000  0.322 -0.002 -0.000  0.000
  0.000 -0.002  0.322  0.000  0.000
 -0.000 -0.000  0.000  0.379 -0.000
  0.000  0.000  0.000 -0.000  0.322
   spin  2
    eigenvalues: 
  0.213  0.254  0.269  0.270  0.272
    eigenvectors:
  0.000  0.000  0.000  0.983  0.017
  0.000  0.002  0.498  0.008  0.492
  0.000  0.002  0.498  0.008  0.492
  0.000  0.995  0.005  0.000  0.000
  1.000  0.000  0.000  0.000  0.000
    occupations:
  0.270 -0.000 -0.000 -0.000 -0.001
 -0.000  0.270  0.002  0.001  0.000
 -0.000  0.002  0.270 -0.001  0.000
 -0.000  0.001 -0.001  0.254 -0.000
 -0.001  0.000  0.000 -0.000  0.213
atomic mag. moment =   0.46618
atom   11   Tr[ns(na)] (up, down, total) =   1.29339  1.77930  3.07269
   spin  1
    eigenvalues: 
  0.234  0.249  0.269  0.270  0.272
    eigenvectors:
  0.002  0.000  0.994  0.000  0.004
  0.015  0.000  0.001  0.500  0.484
  0.015  0.000  0.001  0.500  0.484
  0.000  1.000  0.000  0.000  0.000
  0.967  0.000  0.004  0.000  0.029
    occupations:
  0.269  0.000 -0.000 -0.000  0.002
  0.000  0.270 -0.000 -0.000 -0.005
 -0.000 -0.000  0.270 -0.000  0.005
 -0.000 -0.000 -0.000  0.249 -0.000
  0.002 -0.005  0.005 -0.000  0.235
   spin  2
    eigenvalues: 
  0.322  0.325  0.326  0.403  0.403
    eigenvectors:
  0.000  0.000  0.000  0.000  1.000
  0.000  0.500  0.500  0.000  0.000
  0.000  0.500  0.500  0.000  0.000
  0.000  0.000  0.000  1.000  0.000
  0.999  0.001  0.000  0.000  0.000
    occupations:
  0.403  0.001 -0.001 -0.000  0.000
  0.001  0.325  0.000 -0.000  0.000
 -0.001  0.000  0.325 -0.000 -0.000
 -0.000 -0.000 -0.000  0.403 -0.000
  0.000  0.000 -0.000 -0.000  0.322
atomic mag. moment =  -0.48591
atom   12   Tr[ns(na)] (up, down, total) =   1.29339  1.77930  3.07269
   spin  1
    eigenvalues: 
  0.234  0.249  0.269  0.270  0.272
    eigenvectors:
  0.002  0.000  0.994  0.000  0.004
  0.015  0.000  0.001  0.500  0.484
  0.015  0.000  0.001  0.500  0.484
  0.000  1.000  0.000  0.000  0.000
  0.967  0.000  0.004  0.000  0.029
    occupations:
  0.269  0.000 -0.000 -0.000  0.002
  0.000  0.270 -0.000 -0.000 -0.005
 -0.000 -0.000  0.270 -0.000  0.005
 -0.000 -0.000 -0.000  0.249 -0.000
  0.002 -0.005  0.005 -0.000  0.235
   spin  2
    eigenvalues: 
  0.322  0.325  0.326  0.403  0.403
    eigenvectors:
  0.000  0.000  0.000  0.000  1.000
  0.000  0.500  0.500  0.000  0.000
  0.000  0.500  0.500  0.000  0.000
  0.000  0.000  0.000  1.000  0.000
  0.999  0.001  0.000  0.000  0.000
    occupations:
  0.403  0.001 -0.001 -0.000  0.000
  0.001  0.325  0.000 -0.000  0.000
 -0.001  0.000  0.325 -0.000 -0.000
 -0.000 -0.000 -0.000  0.403 -0.000
  0.000  0.000 -0.000 -0.000  0.322
atomic mag. moment =  -0.48591
atom   13   Tr[ns(na)] (up, down, total) =   1.74382  1.27764  3.02146
   spin  1
    eigenvalues: 
  0.321  0.322  0.324  0.379  0.397
    eigenvectors:
  0.000  0.000  0.000  0.000  1.000
  0.497  0.002  0.500  0.000  0.000
  0.497  0.002  0.500  0.000  0.000
  0.000  0.000  0.000  1.000  0.000
  0.005  0.995  0.000  0.000  0.000
    occupations:
  0.397  0.000  0.000 -0.000  0.000
  0.000  0.322 -0.002 -0.000  0.000
  0.000 -0.002  0.322  0.000  0.000
 -0.000 -0.000  0.000  0.379 -0.000
  0.000  0.000  0.000 -0.000  0.322
   spin  2
    eigenvalues: 
  0.213  0.254  0.269  0.270  0.272
    eigenvectors:
  0.000  0.000  0.000  0.983  0.017
  0.000  0.002  0.498  0.008  0.492
  0.000  0.002  0.498  0.008  0.492
  0.000  0.995  0.005  0.000  0.000
  1.000  0.000  0.000  0.000  0.000
    occupations:
  0.270 -0.000 -0.000 -0.000 -0.001
 -0.000  0.270  0.002  0.001  0.000
 -0.000  0.002  0.270 -0.001  0.000
 -0.000  0.001 -0.001  0.254 -0.000
 -0.001  0.000  0.000 -0.000  0.213
atomic mag. moment =   0.46618
atom   14   Tr[ns(na)] (up, down, total) =   1.74382  1.27764  3.02146
   spin  1
    eigenvalues: 
  0.321  0.322  0.324  0.379  0.397
    eigenvectors:
  0.000  0.000  0.000  0.000  1.000
  0.497  0.002  0.500  0.000  0.000
  0.497  0.002  0.500  0.000  0.000
  0.000  0.000  0.000  1.000  0.000
  0.005  0.995  0.000  0.000  0.000
    occupations:
  0.397 -0.000 -0.000 -0.000  0.000
 -0.000  0.322 -0.002  0.000 -0.000
 -0.000 -0.002  0.322 -0.000 -0.000
 -0.000  0.000 -0.000  0.379 -0.000
  0.000 -0.000 -0.000 -0.000  0.322
   spin  2
    eigenvalues: 
  0.213  0.254  0.269  0.270  0.272
    eigenvectors:
  0.000  0.000  0.000  0.983  0.017
  0.000  0.002  0.498  0.008  0.492
  0.000  0.002  0.498  0.008  0.492
  0.000  0.995  0.005  0.000  0.000
  1.000  0.000  0.000  0.000  0.000
    occupations:
  0.270  0.000  0.000 -0.000 -0.001
  0.000  0.270  0.002 -0.001 -0.000
  0.000  0.002  0.270  0.001 -0.000
 -0.000 -0.001  0.001  0.254 -0.000
 -0.001 -0.000 -0.000 -0.000  0.213
atomic mag. moment =   0.46618
atom   15   Tr[ns(na)] (up, down, total) =   1.29339  1.77930  3.07269
   spin  1
    eigenvalues: 
  0.234  0.249  0.269  0.270  0.272
    eigenvectors:
  0.002  0.000  0.994  0.000  0.004
  0.015  0.000  0.001  0.500  0.484
  0.015  0.000  0.001  0.500  0.484
  0.000  1.000  0.000  0.000  0.000
  0.967  0.000  0.004  0.000  0.029
    occupations:
  0.269 -0.000  0.000 -0.000  0.002
 -0.000  0.270 -0.000  0.000  0.005
  0.000 -0.000  0.270  0.000 -0.005
 -0.000  0.000  0.000  0.249 -0.000
  0.002  0.005 -0.005 -0.000  0.235
   spin  2
    eigenvalues: 
  0.322  0.325  0.326  0.403  0.403
    eigenvectors:
  0.000  0.000  0.000  0.000  1.000
  0.000  0.500  0.500  0.000  0.000
  0.000  0.500  0.500  0.000  0.000
  0.000  0.000  0.000  1.000  0.000
  0.999  0.001  0.000  0.000  0.000
    occupations:
  0.403 -0.001  0.001 -0.000  0.000
 -0.001  0.325  0.000  0.000 -0.000
  0.001  0.000  0.325  0.000  0.000
 -0.000  0.000  0.000  0.403 -0.000
  0.000 -0.000  0.000 -0.000  0.322
atomic mag. moment =  -0.48591
atom   16   Tr[ns(na)] (up, down, total) =   1.29339  1.77930  3.07269
   spin  1
    eigenvalues: 
  0.234  0.249  0.269  0.270  0.272
    eigenvectors:
  0.002  0.000  0.994  0.000  0.004
  0.015  0.000  0.001  0.500  0.484
  0.015  0.000  0.001  0.500  0.484
  0.000  1.000  0.000  0.000  0.000
  0.967  0.000  0.004  0.000  0.029
    occupations:
  0.269 -0.000  0.000 -0.000  0.002
 -0.000  0.270 -0.000  0.000  0.005
  0.000 -0.000  0.270  0.000 -0.005
 -0.000  0.000  0.000  0.249 -0.000
  0.002  0.005 -0.005 -0.000  0.235
   spin  2
    eigenvalues: 
  0.322  0.325  0.326  0.403  0.403
    eigenvectors:
  0.000  0.000  0.000  0.000  1.000
  0.000  0.500  0.500  0.000  0.000
  0.000  0.500  0.500  0.000  0.000
  0.000  0.000  0.000  1.000  0.000
  0.999  0.001  0.000  0.000  0.000
    occupations:
  0.403 -0.001  0.001 -0.000  0.000
 -0.001  0.325  0.000  0.000 -0.000
  0.001  0.000  0.325  0.000  0.000
 -0.000  0.000  0.000  0.403 -0.000
  0.000 -0.000  0.000 -0.000  0.322
atomic mag. moment =  -0.48591
N of occupied +U levels =   24.376603
 --- exit write_ns ---

     negative rho (up, down):  1.437E-01 1.450E-01
 --- in v_hubbard ---
Hubbard energy    2.6224
 -------

     total cpu time spent up to now is       49.4 secs

     total energy              =   -3963.27267478 Ry
     estimated scf accuracy    <       0.98863299 Ry

     total magnetization       =    -2.41 Bohr mag/cell
     absolute magnetization    =    12.42 Bohr mag/cell

     iteration #  5     ecut=    10.00 Ry     beta= 0.40
     CG style diagonalization
     c_bands:  1 eigenvalues not converged
     c_bands:  2 eigenvalues not converged
     ethr =  2.52E-04,  avg # of iterations =  3.9
 --- enter write_ns ---
 LDA+U parameters:
U( 3)     =  4.50000000
U( 4)     =  4.50000000
atom    9   Tr[ns(na)] (up, down, total) =   1.72724  1.40728  3.13452
   spin  1
    eigenvalues: 
  0.320  0.324  0.325  0.363  0.395
    eigenvectors:
  0.000  0.000  0.000  0.000  1.000
  0.000  0.500  0.500  0.000  0.000
  0.000  0.500  0.500  0.000  0.000
  0.000  0.000  0.000  1.000  0.000
  0.999  0.001  0.000  0.000  0.000
    occupations:
  0.395 -0.000 -0.000 -0.000  0.000
 -0.000  0.325 -0.000  0.000 -0.000
 -0.000 -0.000  0.325 -0.000 -0.000
 -0.000  0.000 -0.000  0.363 -0.000
  0.000 -0.000 -0.000 -0.000  0.320
   spin  2
    eigenvalues: 
  0.264  0.283  0.286  0.288  0.288
    eigenvectors:
  0.000  0.995  0.005  0.000  0.000
  0.000  0.000  0.031  0.500  0.468
  0.000  0.000  0.031  0.500  0.468
  1.000  0.000  0.000  0.000  0.000
  0.000  0.004  0.933  0.000  0.063
    occupations:
  0.283 -0.000 -0.000 -0.000 -0.000
 -0.000  0.287 -0.000 -0.000 -0.000
 -0.000 -0.000  0.287  0.000 -0.000
 -0.000 -0.000  0.000  0.264 -0.000
 -0.000 -0.000 -0.000 -0.000  0.286
atomic mag. moment =   0.31995
atom   10   Tr[ns(na)] (up, down, total) =   1.72724  1.40728  3.13452
   spin  1
    eigenvalues: 
  0.320  0.324  0.325  0.363  0.395
    eigenvectors:
  0.000  0.000  0.000  0.000  1.000
  0.000  0.500  0.500  0.000  0.000
  0.000  0.500  0.500  0.000  0.000
  0.000  0.000  0.000  1.000  0.000
  0.999  0.001  0.000  0.000  0.000
    occupations:
  0.395  0.000  0.000 -0.000  0.000
  0.000  0.325 -0.000 -0.000  0.000
  0.000 -0.000  0.325  0.000  0.000
 -0.000 -0.000  0.000  0.363 -0.000
  0.000  0.000  0.000 -0.000  0.320
   spin  2
    eigenvalues: 
  0.264  0.283  0.286  0.288  0.288
    eigenvectors:
  0.000  0.995  0.005  0.000  0.000
  0.000  0.000  0.031  0.500  0.468
  0.000  0.000  0.031  0.500  0.468
  1.000  0.000  0.000  0.000  0.000
  0.000  0.004  0.933  0.000  0.063
    occupations:
  0.283  0.000  0.000 -0.000 -0.000
  0.000  0.287 -0.000  0.000  0.000
  0.000 -0.000  0.287 -0.000  0.000
 -0.000  0.000 -0.000  0.264 -0.000
 -0.000  0.000  0.000 -0.000  0.286
atomic mag. moment =   0.31995
atom   11   Tr[ns(na)] (up, down, total) =   1.32814  1.65305  2.98119
   spin  1
    eigenvalues: 
  0.235  0.271  0.272  0.273  0.277
    eigenvectors:
  0.000  0.999  0.000  0.001  0.000
  0.000  0.000  0.500  0.499  0.000
  0.000  0.000  0.500  0.499  0.000
  1.000  0.000  0.000  0.000  0.000
  0.000  0.000  0.000  0.000  1.000
    occupations:
  0.271  0.000 -0.000 -0.000  0.000
  0.000  0.273 -0.001 -0.000  0.000
 -0.000 -0.001  0.273 -0.000 -0.000
 -0.000 -0.000 -0.000  0.235 -0.000
  0.000  0.000 -0.000 -0.000  0.277
   spin  2
    eigenvalues: 
  0.310  0.311  0.312  0.349  0.371
    eigenvectors:
  0.000  0.000  0.000  0.000  1.000
  0.014  0.500  0.486  0.000  0.000
  0.014  0.500  0.486  0.000  0.000
  0.000  0.000  0.000  1.000  0.000
  0.972  0.000  0.028  0.000  0.000
    occupations:
  0.371 -0.000  0.000 -0.000  0.000
 -0.000  0.312 -0.000 -0.000  0.000
  0.000 -0.000  0.312 -0.000 -0.000
 -0.000 -0.000 -0.000  0.349 -0.000
  0.000  0.000 -0.000 -0.000  0.310
atomic mag. moment =  -0.32491
atom   12   Tr[ns(na)] (up, down, total) =   1.32814  1.65305  2.98119
   spin  1
    eigenvalues: 
  0.235  0.271  0.272  0.273  0.277
    eigenvectors:
  0.000  0.999  0.000  0.001  0.000
  0.000  0.000  0.500  0.499  0.000
  0.000  0.000  0.500  0.499  0.000
  1.000  0.000  0.000  0.000  0.000
  0.000  0.000  0.000  0.000  1.000
    occupations:
  0.271  0.000 -0.000 -0.000  0.000
  0.000  0.273 -0.001 -0.000  0.000
 -0.000 -0.001  0.273 -0.000 -0.000
 -0.000 -0.000 -0.000  0.235 -0.000
  0.000  0.000 -0.000 -0.000  0.277
   spin  2
    eigenvalues: 
  0.310  0.311  0.312  0.349  0.371
    eigenvectors:
  0.000  0.000  0.000  0.000  1.000
  0.014  0.500  0.486  0.000  0.000
  0.014  0.500  0.486  0.000  0.000
  0.000  0.000  0.000  1.000  0.000
  0.972  0.000  0.028  0.000  0.000
    occupations:
  0.371 -0.000  0.000 -0.000  0.000
 -0.000  0.312 -0.000 -0.000  0.000
  0.000 -0.000  0.312 -0.000 -0.000
 -0.000 -0.000 -0.000  0.349 -0.000
  0.000  0.000 -0.000 -0.000  0.310
atomic mag. moment =  -0.32491
atom   13   Tr[ns(na)] (up, down, total) =   1.72724  1.40728  3.13452
   spin  1
    eigenvalues: 
  0.320  0.324  0.325  0.363  0.395
    eigenvectors:
  0.000  0.000  0.000  0.000  1.000
  0.000  0.500  0.500  0.000  0.000
  0.000  0.500  0.500  0.000  0.000
  0.000  0.000  0.000  1.000  0.000
  0.999  0.001  0.000  0.000  0.000
    occupations:
  0.395  0.000  0.000 -0.000  0.000
  0.000  0.325 -0.000 -0.000  0.000
  0.000 -0.000  0.325  0.000  0.000
 -0.000 -0.000  0.000  0.363 -0.000
  0.000  0.000  0.000 -0.000  0.320
   spin  2
    eigenvalues: 
  0.264  0.283  0.286  0.288  0.288
    eigenvectors:
  0.000  0.995  0.005  0.000  0.000
  0.000  0.000  0.031  0.500  0.468
  0.000  0.000  0.031  0.500  0.468
  1.000  0.000  0.000  0.000  0.000
  0.000  0.004  0.933  0.000  0.063
    occupations:
  0.283  0.000  0.000 -0.000 -0.000
  0.000  0.287 -0.000  0.000  0.000
  0.000 -0.000  0.287 -0.000  0.000
 -0.000  0.000 -0.000  0.264 -0.000
 -0.000  0.000  0.000 -0.000  0.286
atomic mag. moment =   0.31995
atom   14   Tr[ns(na)] (up, down, total) =   1.72724  1.40728  3.13452
   spin  1
    eigenvalues: 
  0.320  0.324  0.325  0.363  0.395
    eigenvectors:
  0.000  0.000  0.000  0.000  1.000
  0.000  0.500  0.500  0.000  0.000
  0.000  0.500  0.500  0.000  0.000
  0.000  0.000  0.000  1.000  0.000
  0.999  0.001  0.000  0.000  0.000
    occupations:
  0.395 -0.000 -0.000 -0.000  0.000
 -0.000  0.325 -0.000  0.000 -0.000
 -0.000 -0.000  0.325 -0.000 -0.000
 -0.000  0.000 -0.000  0.363 -0.000
  0.000 -0.000 -0.000 -0.000  0.320
   spin  2
    eigenvalues: 
  0.264  0.283  0.286  0.288  0.288
    eigenvectors:
  0.000  0.995  0.005  0.000  0.000
  0.000  0.000  0.031  0.500  0.468
  0.000  0.000  0.031  0.500  0.468
  1.000  0.000  0.000  0.000  0.000
  0.000  0.004  0.933  0.000  0.063
    occupations:
  0.283 -0.000 -0.000 -0.000 -0.000
 -0.000  0.287 -0.000 -0.000 -0.000
 -0.000 -0.000  0.287  0.000 -0.000
 -0.000 -0.000  0.000  0.264 -0.000
 -0.000 -0.000 -0.000 -0.000  0.286
atomic mag. moment =   0.31995
atom   15   Tr[ns(na)] (up, down, total) =   1.32814  1.65305  2.98119
   spin  1
    eigenvalues: 
  0.235  0.271  0.272  0.273  0.277
    eigenvectors:
  0.000  0.999  0.000  0.001  0.000
  0.000  0.000  0.500  0.499  0.000
  0.000  0.000  0.500  0.499  0.000
  1.000  0.000  0.000  0.000  0.000
  0.000  0.000  0.000  0.000  1.000
    occupations:
  0.271 -0.000  0.000 -0.000  0.000
 -0.000  0.273 -0.001  0.000 -0.000
  0.000 -0.001  0.273  0.000  0.000
 -0.000  0.000  0.000  0.235 -0.000
  0.000 -0.000  0.000 -0.000  0.277
   spin  2
    eigenvalues: 
  0.310  0.311  0.312  0.349  0.371
    eigenvectors:
  0.000  0.000  0.000  0.000  1.000
  0.014  0.500  0.486  0.000  0.000
  0.014  0.500  0.486  0.000  0.000
  0.000  0.000  0.000  1.000  0.000
  0.972  0.000  0.028  0.000  0.000
    occupations:
  0.371  0.000 -0.000 -0.000  0.000
  0.000  0.312 -0.000  0.000 -0.000
 -0.000 -0.000  0.312  0.000  0.000
 -0.000  0.000  0.000  0.349 -0.000
  0.000 -0.000  0.000 -0.000  0.310
atomic mag. moment =  -0.32491
atom   16   Tr[ns(na)] (up, down, total) =   1.32814  1.65305  2.98119
   spin  1
    eigenvalues: 
  0.235  0.271  0.272  0.273  0.277
    eigenvectors:
  0.000  0.999  0.000  0.001  0.000
  0.000  0.000  0.500  0.499  0.000
  0.000  0.000  0.500  0.499  0.000
  1.000  0.000  0.000  0.000  0.000
  0.000  0.000  0.000  0.000  1.000
    occupations:
  0.271 -0.000  0.000 -0.000  0.000
 -0.000  0.273 -0.001  0.000 -0.000
  0.000 -0.001  0.273  0.000  0.000
 -0.000  0.000  0.000  0.235 -0.000
  0.000 -0.000  0.000 -0.000  0.277
   spin  2
    eigenvalues: 
  0.310  0.311  0.312  0.349  0.371
    eigenvectors:
  0.000  0.000  0.000  0.000  1.000
  0.014  0.500  0.486  0.000  0.000
  0.014  0.500  0.486  0.000  0.000
  0.000  0.000  0.000  1.000  0.000
  0.972  0.000  0.028  0.000  0.000
    occupations:
  0.371  0.000 -0.000 -0.000  0.000
  0.000  0.312 -0.000  0.000 -0.000
 -0.000 -0.000  0.312  0.000  0.000
 -0.000  0.000  0.000  0.349 -0.000
  0.000 -0.000  0.000 -0.000  0.310
atomic mag. moment =  -0.32491
N of occupied +U levels =   24.462847
 --- exit write_ns ---

     negative rho (up, down):  1.421E-01 1.432E-01
 --- in v_hubbard ---
Hubbard energy    2.6768
 -------

     total cpu time spent up to now is       60.9 secs

     total energy              =   -3963.57963275 Ry
     estimated scf accuracy    <       0.70652378 Ry

     total magnetization       =    -1.28 Bohr mag/cell
     absolute magnetization    =     8.25 Bohr mag/cell

     iteration #  6     ecut=    10.00 Ry     beta= 0.40
     CG style diagonalization
     ethr =  1.80E-04,  avg # of iterations =  3.2
 --- enter write_ns ---
 LDA+U parameters:
U( 3)     =  4.50000000
U( 4)     =  4.50000000
atom    9   Tr[ns(na)] (up, down, total) =   1.55754  1.31603  2.87357
   spin  1
    eigenvalues: 
  0.304  0.304  0.305  0.321  0.324
    eigenvectors:
  0.000  0.000  0.000  1.000  0.000
  0.043  0.457  0.500  0.000  0.000
  0.043  0.457  0.500  0.000  0.000
  0.000  0.000  0.000  0.000  1.000
  0.914  0.086  0.000  0.000  0.000
    occupations:
  0.321  0.000  0.000 -0.000  0.000
  0.000  0.305 -0.000  0.000 -0.000
  0.000 -0.000  0.305 -0.000 -0.000
 -0.000  0.000 -0.000  0.324 -0.000
  0.000 -0.000 -0.000 -0.000  0.304
   spin  2
    eigenvalues: 
  0.236  0.266  0.271  0.271  0.272
    eigenvectors:
  0.000  0.997  0.000  0.002  0.001
  0.000  0.001  0.500  0.476  0.023
  0.000  0.001  0.500  0.476  0.023
  1.000  0.000  0.000  0.000  0.000
  0.000  0.002  0.000  0.045  0.953
    occupations:
  0.266 -0.000 -0.000 -0.000 -0.000
 -0.000  0.271  0.000 -0.000 -0.000
 -0.000  0.000  0.271  0.000 -0.000
 -0.000 -0.000  0.000  0.236 -0.000
 -0.000 -0.000 -0.000 -0.000  0.272
atomic mag. moment =   0.24151
atom   10   Tr[ns(na)] (up, down, total) =   1.55754  1.31603  2.87357
   spin  1
    eigenvalues: 
  0.304  0.304  0.305  0.321  0.324
    eigenvectors:
  0.000  0.000  0.000  1.000  0.000
  0.043  0.457  0.500  0.000  0.000
  0.043  0.457  0.500  0.000  0.000
  0.000  0.000  0.000  0.000  1.000
  0.914  0.086  0.000  0.000  0.000
    occupations:
  0.321 -0.000 -0.000 -0.000  0.000
 -0.000  0.305 -0.000 -0.000  0.000
 -0.000 -0.000  0.305  0.000  0.000
 -0.000 -0.000  0.000  0.324 -0.000
  0.000  0.000  0.000 -0.000  0.304
   spin  2
    eigenvalues: 
  0.236  0.266  0.271  0.271  0.272
    eigenvectors:
  0.000  0.997  0.000  0.002  0.001
  0.000  0.001  0.500  0.476  0.023
  0.000  0.001  0.500  0.476  0.023
  1.000  0.000  0.000  0.000  0.000
  0.000  0.002  0.000  0.045  0.953
    occupations:
  0.266  0.000  0.000 -0.000 -0.000
  0.000  0.271  0.000  0.000  0.000
  0.000  0.000  0.271 -0.000  0.000
 -0.000  0.000 -0.000  0.236 -0.000
 -0.000  0.000  0.000 -0.000  0.272
atomic mag. moment =   0.24151
atom   11   Tr[ns(na)] (up, down, total) =   1.42033  1.70181  3.12214
   spin  1
    eigenvalues: 
  0.274  0.275  0.290  0.291  0.291
    eigenvectors:
  1.000  0.000  0.000  0.000  0.000
  0.000  0.000  0.000  0.500  0.500
  0.000  0.000  0.000  0.500  0.500
  0.000  1.000  0.000  0.000  0.000
  0.000  0.000  0.999  0.001  0.000
    occupations:
  0.274  0.000 -0.000 -0.000  0.000
  0.000  0.291  0.000 -0.000  0.000
 -0.000  0.000  0.291 -0.000 -0.000
 -0.000 -0.000 -0.000  0.275 -0.000
  0.000  0.000 -0.000 -0.000  0.290
   spin  2
    eigenvalues: 
  0.316  0.320  0.320  0.360  0.386
    eigenvectors:
  0.000  0.000  0.000  0.000  1.000
  0.001  0.499  0.500  0.000  0.000
  0.001  0.499  0.500  0.000  0.000
  0.000  0.000  0.000  1.000  0.000
  0.999  0.001  0.000  0.000  0.000
    occupations:
  0.386 -0.000  0.000 -0.000  0.000
 -0.000  0.320  0.000 -0.000  0.000
  0.000  0.000  0.320 -0.000 -0.000
 -0.000 -0.000 -0.000  0.360 -0.000
  0.000  0.000 -0.000 -0.000  0.316
atomic mag. moment =  -0.28148
atom   12   Tr[ns(na)] (up, down, total) =   1.42033  1.70181  3.12214
   spin  1
    eigenvalues: 
  0.274  0.275  0.290  0.291  0.291
    eigenvectors:
  1.000  0.000  0.000  0.000  0.000
  0.000  0.000  0.000  0.500  0.500
  0.000  0.000  0.000  0.500  0.500
  0.000  1.000  0.000  0.000  0.000
  0.000  0.000  0.999  0.001  0.000
    occupations:
  0.274  0.000 -0.000 -0.000  0.000
  0.000  0.291  0.000 -0.000  0.000
 -0.000  0.000  0.291 -0.000 -0.000
 -0.000 -0.000 -0.000  0.275 -0.000
  0.000  0.000 -0.000 -0.000  0.290
   spin  2
    eigenvalues: 
  0.316  0.320  0.320  0.360  0.386
    eigenvectors:
  0.000  0.000  0.000  0.000  1.000
  0.001  0.499  0.500  0.000  0.000
  0.001  0.499  0.500  0.000  0.000
  0.000  0.000  0.000  1.000  0.000
  0.999  0.001  0.000  0.000  0.000
    occupations:
  0.386 -0.000  0.000 -0.000  0.000
 -0.000  0.320  0.000 -0.000  0.000
  0.000  0.000  0.320 -0.000 -0.000
 -0.000 -0.000 -0.000  0.360 -0.000
  0.000  0.000 -0.000 -0.000  0.316
atomic mag. moment =  -0.28148
atom   13   Tr[ns(na)] (up, down, total) =   1.55754  1.31603  2.87357
   spin  1
    eigenvalues: 
  0.304  0.304  0.305  0.321  0.324
    eigenvectors:
  0.000  0.000  0.000  1.000  0.000
  0.043  0.457  0.500  0.000  0.000
  0.043  0.457  0.500  0.000  0.000
  0.000  0.000  0.000  0.000  1.000
  0.914  0.086  0.000  0.000  0.000
    occupations:
  0.321 -0.000 -0.000 -0.000  0.000
 -0.000  0.305 -0.000 -0.000  0.000
 -0.000 -0.000  0.305  0.000  0.000
 -0.000 -0.000  0.000  0.324 -0.000
  0.000  0.000  0.000 -0.000  0.304
   spin  2
    eigenvalues: 
  0.236  0.266  0.271  0.271  0.272
    eigenvectors:
  0.000  0.997  0.000  0.002  0.001
  0.000  0.001  0.500  0.476  0.023
  0.000  0.001  0.500  0.476  0.023
  1.000  0.000  0.000  0.000  0.000
  0.000  0.002  0.000  0.045  0.953
    occupations:
  0.266  0.000  0.000 -0.000 -0.000
  0.000  0.271  0.000  0.000  0.000
  0.000  0.000  0.271 -0.000  0.000
 -0.000  0.000 -0.000  0.236 -0.000
 -0.000  0.000  0.000 -0.000  0.272
atomic mag. moment =   0.24151
atom   14   Tr[ns(na)] (up, down, total) =   1.55754  1.31603  2.87357
   spin  1
    eigenvalues: 
  0.304  0.304  0.305  0.321  0.324
    eigenvectors:
  0.000  0.000  0.000  1.000  0.000
  0.043  0.457  0.500  0.000  0.000
  0.043  0.457  0.500  0.000  0.000
  0.000  0.000  0.000  0.000  1.000
  0.914  0.086  0.000  0.000  0.000
    occupations:
  0.321  0.000  0.000 -0.000  0.000
  0.000  0.305 -0.000  0.000 -0.000
  0.000 -0.000  0.305 -0.000 -0.000
 -0.000  0.000 -0.000  0.324 -0.000
  0.000 -0.000 -0.000 -0.000  0.304
   spin  2
    eigenvalues: 
  0.236  0.266  0.271  0.271  0.272
    eigenvectors:
  0.000  0.997  0.000  0.002  0.001
  0.000  0.001  0.500  0.476  0.023
  0.000  0.001  0.500  0.476  0.023
  1.000  0.000  0.000  0.000  0.000
  0.000  0.002  0.000  0.045  0.953
    occupations:
  0.266 -0.000 -0.000 -0.000 -0.000
 -0.000  0.271  0.000 -0.000 -0.000
 -0.000  0.000  0.271  0.000 -0.000
 -0.000 -0.000  0.000  0.236 -0.000
 -0.000 -0.000 -0.000 -0.000  0.272
atomic mag. moment =   0.24151
atom   15   Tr[ns(na)] (up, down, total) =   1.42033  1.70181  3.12214
   spin  1
    eigenvalues: 
  0.274  0.275  0.290  0.291  0.291
    eigenvectors:
  1.000  0.000  0.000  0.000  0.000
  0.000  0.000  0.000  0.500  0.500
  0.000  0.000  0.000  0.500  0.500
  0.000  1.000  0.000  0.000  0.000
  0.000  0.000  0.999  0.001  0.000
    occupations:
  0.274 -0.000  0.000 -0.000  0.000
 -0.000  0.291  0.000  0.000 -0.000
  0.000  0.000  0.291  0.000  0.000
 -0.000  0.000  0.000  0.275 -0.000
  0.000 -0.000  0.000 -0.000  0.290
   spin  2
    eigenvalues: 
  0.316  0.320  0.320  0.360  0.386
    eigenvectors:
  0.000  0.000  0.000  0.000  1.000
  0.001  0.499  0.500  0.000  0.000
  0.001  0.499  0.500  0.000  0.000
  0.000  0.000  0.000  1.000  0.000
  0.999  0.001  0.000  0.000  0.000
    occupations:
  0.386  0.000 -0.000 -0.000  0.000
  0.000  0.320  0.000  0.000 -0.000
 -0.000  0.000  0.320  0.000  0.000
 -0.000  0.000  0.000  0.360 -0.000
  0.000 -0.000  0.000 -0.000  0.316
atomic mag. moment =  -0.28148
atom   16   Tr[ns(na)] (up, down, total) =   1.42033  1.70181  3.12214
   spin  1
    eigenvalues: 
  0.274  0.275  0.290  0.291  0.291
    eigenvectors:
  1.000  0.000  0.000  0.000  0.000
  0.000  0.000  0.000  0.500  0.500
[...]
atom   14   Tr[ns(na)] (up, down, total) =   1.50941  1.50666  3.01608
   spin  1
    eigenvalues: 
  0.299  0.299  0.299  0.306  0.307
    eigenvectors:
  0.000  0.000  0.000  1.000  0.000
  0.001  0.500  0.499  0.000  0.000
  0.001  0.500  0.499  0.000  0.000
  0.000  0.000  0.000  0.000  1.000
  0.999  0.000  0.001  0.000  0.000
    occupations:
  0.306 -0.000 -0.000 -0.000 -0.000
 -0.000  0.299  0.000 -0.000  0.000
 -0.000  0.000  0.299  0.000  0.000
 -0.000 -0.000  0.000  0.307 -0.000
 -0.000  0.000  0.000 -0.000  0.299
   spin  2
    eigenvalues: 
  0.298  0.299  0.299  0.305  0.306
    eigenvectors:
  0.000  0.000  0.000  0.000  1.000
  0.486  0.500  0.014  0.000  0.000
  0.486  0.500  0.014  0.000  0.000
  0.000  0.000  0.000  1.000  0.000
  0.027  0.000  0.973  0.000  0.000
    occupations:
  0.306 -0.000 -0.000 -0.000  0.000
 -0.000  0.298 -0.000  0.000  0.000
 -0.000 -0.000  0.298 -0.000  0.000
 -0.000  0.000 -0.000  0.305 -0.000
  0.000  0.000  0.000 -0.000  0.299
atomic mag. moment =   0.00275
atom   15   Tr[ns(na)] (up, down, total) =   1.50807  1.50758  3.01565
   spin  1
    eigenvalues: 
  0.299  0.299  0.299  0.306  0.306
    eigenvectors:
  0.000  0.000  0.000  0.000  1.000
  0.450  0.050  0.500  0.000  0.000
  0.450  0.050  0.500  0.000  0.000
  0.000  0.000  0.000  1.000  0.000
  0.101  0.899  0.000  0.000  0.000
    occupations:
  0.306  0.000 -0.000 -0.000  0.000
  0.000  0.299  0.000 -0.000 -0.000
 -0.000  0.000  0.299 -0.000  0.000
 -0.000 -0.000 -0.000  0.306 -0.000
  0.000 -0.000  0.000 -0.000  0.299
   spin  2
    eigenvalues: 
  0.298  0.298  0.298  0.306  0.306
    eigenvectors:
  0.000  0.000  0.000  1.000  0.000
  0.004  0.500  0.496  0.000  0.000
  0.004  0.500  0.496  0.000  0.000
  0.000  0.000  0.000  0.000  1.000
  0.992  0.000  0.008  0.000  0.000
    occupations:
  0.306 -0.000  0.000 -0.000  0.000
 -0.000  0.298 -0.000 -0.000  0.000
  0.000 -0.000  0.298 -0.000 -0.000
 -0.000 -0.000 -0.000  0.306 -0.000
  0.000  0.000 -0.000 -0.000  0.298
atomic mag. moment =   0.00050
atom   16   Tr[ns(na)] (up, down, total) =   1.50807  1.50758  3.01565
   spin  1
    eigenvalues: 
  0.299  0.299  0.299  0.306  0.306
    eigenvectors:
  0.000  0.000  0.000  0.000  1.000
  0.450  0.050  0.500  0.000  0.000
  0.450  0.050  0.500  0.000  0.000
  0.000  0.000  0.000  1.000  0.000
  0.101  0.899  0.000  0.000  0.000
    occupations:
  0.306  0.000 -0.000 -0.000  0.000
  0.000  0.299  0.000 -0.000 -0.000
 -0.000  0.000  0.299 -0.000  0.000
 -0.000 -0.000 -0.000  0.306 -0.000
  0.000 -0.000  0.000 -0.000  0.299
   spin  2
    eigenvalues: 
  0.298  0.298  0.298  0.306  0.306
    eigenvectors:
  0.000  0.000  0.000  1.000  0.000
  0.004  0.500  0.496  0.000  0.000
  0.004  0.500  0.496  0.000  0.000
  0.000  0.000  0.000  0.000  1.000
  0.992  0.000  0.008  0.000  0.000
    occupations:
  0.306 -0.000  0.000 -0.000  0.000
 -0.000  0.298 -0.000 -0.000  0.000
  0.000 -0.000  0.298 -0.000 -0.000
 -0.000 -0.000 -0.000  0.306 -0.000
  0.000  0.000 -0.000 -0.000  0.298
atomic mag. moment =   0.00050
N of occupied +U levels =   24.126914
 --- exit write_ns ---

     negative rho (up, down):  1.405E-01 1.408E-01
 --- in v_hubbard ---
Hubbard energy    2.7864
 -------

     Magnetic moment per site:
     atom:    1    charge:   11.9126    magn:   -0.0108    constr:    0.0000
     atom:    2    charge:   11.9128    magn:   -0.0108    constr:    0.0000
     atom:    3    charge:   11.9116    magn:   -0.0108    constr:    0.0000
     atom:    4    charge:   11.9127    magn:   -0.0108    constr:    0.0000
     atom:    5    charge:   11.9117    magn:   -0.0108    constr:    0.0000
     atom:    6    charge:   11.9138    magn:   -0.0108    constr:    0.0000
     atom:    7    charge:   11.9127    magn:   -0.0108    constr:    0.0000
     atom:    8    charge:   11.9116    magn:   -0.0108    constr:    0.0000
     atom:    9    charge:   11.5388    magn:    0.0030    constr:    0.0000
     atom:   10    charge:   11.5388    magn:    0.0030    constr:    0.0000
     atom:   11    charge:   11.5381    magn:   -0.0010    constr:    0.0000
     atom:   12    charge:   11.5381    magn:   -0.0010    constr:    0.0000
     atom:   13    charge:   11.5388    magn:    0.0030    constr:    0.0000
     atom:   14    charge:   11.5388    magn:    0.0030    constr:    0.0000
     atom:   15    charge:   11.5381    magn:   -0.0010    constr:    0.0000
     atom:   16    charge:   11.5381    magn:   -0.0010    constr:    0.0000
     atom:   17    charge:    5.0661    magn:   -0.0191    constr:    0.0000
     atom:   18    charge:    5.0663    magn:   -0.0197    constr:    0.0000
     atom:   19    charge:    5.0663    magn:   -0.0197    constr:    0.0000
     atom:   20    charge:    5.0661    magn:   -0.0191    constr:    0.0000
     atom:   21    charge:    5.0666    magn:   -0.0193    constr:    0.0000
     atom:   22    charge:    5.0692    magn:   -0.0193    constr:    0.0000
     atom:   23    charge:    5.0696    magn:   -0.0190    constr:    0.0000
     atom:   24    charge:    5.0696    magn:   -0.0190    constr:    0.0000
     atom:   25    charge:    5.0692    magn:   -0.0193    constr:    0.0000
     atom:   26    charge:    5.0666    magn:   -0.0193    constr:    0.0000
     atom:   27    charge:    5.0693    magn:   -0.0197    constr:    0.0000
     atom:   28    charge:    5.0663    magn:   -0.0197    constr:    0.0000
     atom:   29    charge:    5.0693    magn:   -0.0197    constr:    0.0000
     atom:   30    charge:    5.0663    magn:   -0.0197    constr:    0.0000
     atom:   31    charge:    5.0693    magn:   -0.0197    constr:    0.0000
     atom:   32    charge:    5.0663    magn:   -0.0197    constr:    0.0000
     atom:   33    charge:    5.0693    magn:   -0.0197    constr:    0.0000
     atom:   34    charge:    5.0693    magn:   -0.0197    constr:    0.0000
     atom:   35    charge:    5.0693    magn:   -0.0197    constr:    0.0000
     atom:   36    charge:    5.0663    magn:   -0.0197    constr:    0.0000
     atom:   37    charge:    5.0663    magn:   -0.0197    constr:    0.0000
     atom:   38    charge:    5.0693    magn:   -0.0197    constr:    0.0000
     atom:   39    charge:    5.0693    magn:   -0.0197    constr:    0.0000
     atom:   40    charge:    5.0663    magn:   -0.0197    constr:    0.0000

     total cpu time spent up to now is      172.3 secs

     End of self-consistent calculation

 ------ SPIN UP ------------


          k = 0.0000 0.0000 0.0000 (  1791 PWs)   bands (ev):

  -123.9425-121.1161-121.1133-121.1105-119.9106-119.9078-119.9050-118.4549
   -67.3101 -67.3100 -67.3100 -61.6210 -61.6208 -61.6208 -61.6208 -61.6207
   -61.6206 -60.7505 -60.7504 -60.7504 -58.6678 -58.6676 -58.6676 -58.6676
   -58.6676 -58.6675 -55.8431 -55.8430 -55.8429 -55.4372 -55.4372 -55.4371
   -11.9873 -11.2565 -11.2563 -11.2560 -11.1539 -11.1535 -11.1427 -11.1427
   -11.1426 -10.9746 -10.9740 -10.9737 -10.6586 -10.6579 -10.6579 -10.6342
   -10.6339 -10.6332 -10.6332 -10.6332 -10.6332 -10.6154 -10.6152 -10.5589
   -10.5589 -10.5585 -10.4726 -10.4724 -10.4724 -10.4704 -10.4704 -10.4700
   -10.4370 -10.4367 -10.4362 -10.4026 -10.4026 -10.4023 -10.3952 -10.3951
   -10.3950 -10.3894 -10.3893 -10.3892 -10.3354 -10.3351 -10.3346 -10.2115
   -10.2106 -10.2106 -10.0924 -10.0923 -10.0921  -9.8090  -9.8088  -9.7191
    -9.7190  -9.7189  -9.7170  -9.7170  -9.7165  -9.6094  -9.6094  -9.6093
     2.1376   2.1378   2.1381   2.4586   2.4589   2.4591   2.9480   3.4163
     4.8542   4.8543   4.8545   6.4575   6.7100   6.7106   6.7106   6.9729
     6.9734   6.9737   7.2218   7.2227   7.2244   7.2391   7.2393   7.2396
     7.3854   7.3854   7.3855   7.7716   7.7728   7.7741   9.0520   9.0520
     9.0526   9.0527   9.0530   9.0532   9.5486   9.5487   9.5488   9.5489
     9.5489   9.5489   9.8466   9.8467   9.8468   9.8468   9.8470   9.8470
     9.9502   9.9502   9.9506   9.9507   9.9508   9.9514  10.0434  10.0442
    10.2713  10.2717  10.2718  10.4099  10.4102  10.5073  10.5073  10.5079
    10.7883  10.7884  10.7889  11.0502  11.0505  11.0510  11.6254  11.6258
    11.6258  12.1604  12.1676  12.1734  12.4961  12.4965  12.4970  12.8103
    12.8107  12.8107  12.8109  12.8111  12.8111  12.9165  12.9169  12.9172
    12.9174  12.9175  12.9183  13.3107  13.3142  13.3184  13.6170  13.6175
    13.6176  13.6467  13.6467  13.6471  13.7949  13.7950  13.7983  14.4556
    14.4568  14.4593  15.4434  15.4445  15.4453  15.7081  15.7908  15.7912
    15.7917  15.9135  15.9148  15.9148  16.3224  16.3232  16.3232  16.3234
    16.3235  16.3248  16.5910  16.5913  16.5916  16.8997  16.8998  16.9003
    16.9004  16.9009  16.9012  17.5035  17.5036  17.5037  17.5040  18.3732
    18.3745  18.3745  21.4398

     occupation numbers 
     1.0000   1.0000   1.0000   1.0000   1.0000   1.0000   1.0000   1.0000
     1.0000   1.0000   1.0000   1.0000   1.0000   1.0000   1.0000   1.0000
     1.0000   1.0000   1.0000   1.0000   1.0000   1.0000   1.0000   1.0000
     1.0000   1.0000   1.0000   1.0000   1.0000   1.0000   1.0000   1.0000
     1.0000   1.0000   1.0000   1.0000   1.0000   1.0000   1.0000   1.0000
     1.0000   1.0000   1.0000   1.0000   1.0000   1.0000   1.0000   1.0000
     1.0000   1.0000   1.0000   1.0000   1.0000   1.0000   1.0000   1.0000
     1.0000   1.0000   1.0000   1.0000   1.0000   1.0000   1.0000   1.0000
     1.0000   1.0000   1.0000   1.0000   1.0000   1.0000   1.0000   1.0000
     1.0000   1.0000   1.0000   1.0000   1.0000   1.0000   1.0000   1.0000
     1.0000   1.0000   1.0000   1.0000   1.0000   1.0000   1.0000   1.0000
     1.0000   1.0000   1.0000   1.0000   1.0000   1.0000   1.0000   1.0000
     1.0000   1.0000   1.0000   1.0000   1.0000   1.0000   1.0000   1.0000
     1.0000   1.0000   1.0000   1.0000   1.0000   1.0000   1.0000   1.0000
     1.0000   1.0000   1.0000   1.0000   1.0000   1.0000   1.0000   1.0000
     1.0000   1.0000   1.0000   1.0000   1.0000   1.0000   1.0000   1.0000
     1.0000   1.0000   1.0000   1.0000   1.0000   1.0000   1.0000   1.0000
     1.0000   1.0000   1.0000   1.0000   1.0000   1.0000   1.0000   1.0000
     1.0000   1.0000   1.0000   1.0000   1.0000   1.0000   1.0000   1.0000
     1.0000   1.0000   1.0000   1.0000   1.0000   1.0000   1.0000   1.0000
     1.0000   1.0000   1.0000   1.0000   1.0000   1.0000   1.0000   1.0000
     1.0000   1.0000   1.0000   1.0000   1.0000   1.0000   1.0000   1.0000
     1.0000   1.0000   1.0000   1.0000   1.0000   1.0000   1.0000   1.0000
     1.0000   1.0000   1.0000   1.0001   1.0002   1.0002   0.9545   0.9532
     0.9529   0.8515   0.8512   0.8495   0.0702   0.0698   0.0599  -0.0000
    -0.0000  -0.0000  -0.0000  -0.0000  -0.0000  -0.0000  -0.0000  -0.0000
    -0.0000  -0.0000  -0.0000  -0.0000  -0.0000  -0.0000  -0.0000  -0.0000
    -0.0000  -0.0000  -0.0000  -0.0000  -0.0000  -0.0000  -0.0000  -0.0000
    -0.0000  -0.0000  -0.0000  -0.0000  -0.0000  -0.0000  -0.0000  -0.0000
    -0.0000  -0.0000  -0.0000

 ------ SPIN DOWN ----------


          k = 0.0000 0.0000 0.0000 (  1791 PWs)   bands (ev):

  -123.9432-121.1147-121.1139-121.1130-119.9091-119.9083-119.9074-118.4553
   -67.3104 -67.3100 -67.3099 -61.6221 -61.6206 -61.6206 -61.6206 -61.6205
   -61.6199 -60.7507 -60.7503 -60.7502 -58.6687 -58.6673 -58.6672 -58.6672
   -58.6672 -58.6665 -55.8431 -55.8427 -55.8426 -55.4371 -55.4367 -55.4366
   -12.0201 -11.2900 -11.2898 -11.2896 -11.1811 -11.1806 -11.1473 -11.1471
   -11.1471 -11.0083 -11.0079 -11.0074 -10.6865 -10.6864 -10.6858 -10.6687
   -10.6687 -10.6687 -10.6687 -10.6686 -10.6673 -10.6280 -10.6277 -10.5940
   -10.5937 -10.5934 -10.4779 -10.4775 -10.4773 -10.4754 -10.4753 -10.4752
   -10.4422 -10.4422 -10.4414 -10.4080 -10.4078 -10.4077 -10.4003 -10.4002
   -10.3998 -10.3950 -10.3949 -10.3946 -10.3408 -10.3408 -10.3400 -10.2460
   -10.2460 -10.2453 -10.1046 -10.1044 -10.1042  -9.8148  -9.8144  -9.7248
    -9.7244  -9.7242  -9.7224  -9.7223  -9.7222  -9.6153  -9.6150  -9.6150
     2.1184   2.1186   2.1188   2.4390   2.4394   2.4394   2.9293   3.3990
     4.8567   4.8567   4.8568   6.4470   6.6845   6.6846   6.6852   6.9611
     6.9615   6.9620   7.2145   7.2160   7.2173   7.2236   7.2238   7.2239
     7.3603   7.3604   7.3605   7.7607   7.7621   7.7632   9.0203   9.0205
     9.0207   9.0208   9.0214   9.0214   9.5255   9.5255   9.5256   9.5256
     9.5257   9.5258   9.8183   9.8186   9.8187   9.8187   9.8188   9.8188
     9.9311   9.9324   9.9324   9.9326   9.9327   9.9336  10.0435  10.0440
    10.2550  10.2550  10.2555  10.3991  10.3992  10.5097  10.5097  10.5102
    10.7471  10.7474  10.7475  11.0111  11.0116  11.0116  11.5986  11.5986
    11.5991  12.1616  12.1669  12.1730  12.4524  12.4529  12.4532  12.7780
    12.7780  12.7783  12.7784  12.7786  12.7786  12.8972  12.8990  12.8990
    12.8993  12.8993  12.9007  13.3025  13.3064  13.3089  13.5828  13.5831
    13.5832  13.6031  13.6035  13.6036  13.7772  13.7802  13.7804  14.4556
    14.4582  14.4599  15.4238  15.4249  15.4259  15.7042  15.7780  15.7783
    15.7788  15.9020  15.9020  15.9033  16.3168  16.3192  16.3193  16.3194
    16.3195  16.3215  16.5731  16.5733  16.5737  16.8682  16.8687  16.8690
    16.8691  16.8698  16.8699  17.4767  17.4775  17.4776  17.4778  17.4794
    18.3479  18.3479  18.3493

     occupation numbers 
     1.0000   1.0000   1.0000   1.0000   1.0000   1.0000   1.0000   1.0000
     1.0000   1.0000   1.0000   1.0000   1.0000   1.0000   1.0000   1.0000
     1.0000   1.0000   1.0000   1.0000   1.0000   1.0000   1.0000   1.0000
     1.0000   1.0000   1.0000   1.0000   1.0000   1.0000   1.0000   1.0000
     1.0000   1.0000   1.0000   1.0000   1.0000   1.0000   1.0000   1.0000
     1.0000   1.0000   1.0000   1.0000   1.0000   1.0000   1.0000   1.0000
     1.0000   1.0000   1.0000   1.0000   1.0000   1.0000   1.0000   1.0000
     1.0000   1.0000   1.0000   1.0000   1.0000   1.0000   1.0000   1.0000
     1.0000   1.0000   1.0000   1.0000   1.0000   1.0000   1.0000   1.0000
     1.0000   1.0000   1.0000   1.0000   1.0000   1.0000   1.0000   1.0000
     1.0000   1.0000   1.0000   1.0000   1.0000   1.0000   1.0000   1.0000
     1.0000   1.0000   1.0000   1.0000   1.0000   1.0000   1.0000   1.0000
     1.0000   1.0000   1.0000   1.0000   1.0000   1.0000   1.0000   1.0000
     1.0000   1.0000   1.0000   1.0000   1.0000   1.0000   1.0000   1.0000
     1.0000   1.0000   1.0000   1.0000   1.0000   1.0000   1.0000   1.0000
     1.0000   1.0000   1.0000   1.0000   1.0000   1.0000   1.0000   1.0000
     1.0000   1.0000   1.0000   1.0000   1.0000   1.0000   1.0000   1.0000
     1.0000   1.0000   1.0000   1.0000   1.0000   1.0000   1.0000   1.0000
     1.0000   1.0000   1.0000   1.0000   1.0000   1.0000   1.0000   1.0000
     1.0000   1.0000   1.0000   1.0000   1.0000   1.0000   1.0000   1.0000
     1.0000   1.0000   1.0000   1.0000   1.0000   1.0000   1.0000   1.0000
     1.0000   1.0000   1.0000   1.0000   1.0000   1.0000   1.0000   1.0000
     1.0000   1.0000   1.0000   1.0000   1.0000   1.0000   1.0000   1.0000
     1.0000   1.0000   1.0000   1.0001   1.0001   1.0001   1.0172   1.0169
     1.0168   0.9867   0.9859   0.9857   0.1340   0.1220   0.1212  -0.0000
    -0.0000  -0.0000  -0.0000  -0.0000  -0.0000  -0.0000  -0.0000  -0.0000
    -0.0000  -0.0000  -0.0000  -0.0000  -0.0000  -0.0000  -0.0000  -0.0000
    -0.0000  -0.0000  -0.0000  -0.0000  -0.0000  -0.0000  -0.0000  -0.0000
    -0.0000  -0.0000  -0.0000  -0.0000  -0.0000  -0.0000  -0.0000  -0.0000
    -0.0000  -0.0000  -0.0000

     the Fermi energy is    13.7102 ev

!    total energy              =   -3963.89266252 Ry
     estimated scf accuracy    <       0.00000787 Ry
     smearing contrib. (-TS)   =      -0.00239900 Ry
     internal energy E=F+TS    =   -3963.89026351 Ry

     The total energy is F=E-TS. E is the sum of the following terms:
     one-electron contribution =   -1072.35745799 Ry
     hartree contribution      =     688.93515645 Ry
     xc contribution           =    -845.65061967 Ry
     ewald contribution        =   -2737.60377653 Ry
     Hubbard energy            =       2.78643423 Ry

     total magnetization       =    -0.77 Bohr mag/cell
     absolute magnetization    =     0.82 Bohr mag/cell

     convergence has been achieved in  16 iterations

     Writing output data file /home/aldair1809/Documentos/QE/4BFO/temp/scf/bifeo3.save/

     init_run     :      4.52s CPU      4.96s WALL (       1 calls)
     electrons    :    163.18s CPU    166.67s WALL (       1 calls)

     Called by init_run:
     wfcinit      :      3.76s CPU      3.97s WALL (       1 calls)
     wfcinit:atom :      0.00s CPU      0.00s WALL (       2 calls)
     wfcinit:wfcr :      2.82s CPU      3.02s WALL (       2 calls)
     potinit      :      0.09s CPU      0.14s WALL (       1 calls)
     hinit0       :      0.25s CPU      0.29s WALL (       1 calls)

     Called by electrons:
     c_bands      :    141.47s CPU    144.57s WALL (      16 calls)
     sum_band     :     15.13s CPU     15.39s WALL (      16 calls)
     v_of_rho     :      0.77s CPU      0.79s WALL (      17 calls)
     v_h          :      0.02s CPU      0.02s WALL (      17 calls)
     v_xc         :      0.75s CPU      0.77s WALL (      17 calls)
     newd         :      6.01s CPU      6.14s WALL (      17 calls)
     mix_rho      :      0.11s CPU      0.13s WALL (      16 calls)

     Called by c_bands:
     init_us_2    :      0.17s CPU      0.18s WALL (      68 calls)
     ccgdiagg     :    112.25s CPU    115.02s WALL (      32 calls)
     wfcrot       :     31.88s CPU     32.39s WALL (      32 calls)

     Called by sum_band:
     sum_band:wei :      0.02s CPU      0.02s WALL (      16 calls)
     sum_band:loo :      7.72s CPU      7.94s WALL (      16 calls)
     sum_band:buf :      0.03s CPU      0.03s WALL (      32 calls)
     sum_band:ini :      0.08s CPU      0.08s WALL (      32 calls)
     sum_band:cal :      6.66s CPU      6.75s WALL (      32 calls)
     sum_band:bec :      0.18s CPU      0.18s WALL (      32 calls)
     addusdens    :      6.57s CPU      6.59s WALL (      16 calls)
     addusd:skk   :      0.04s CPU      0.04s WALL (      64 calls)
     addusd:dgemm :      4.34s CPU      4.35s WALL (     128 calls)
     addusd:qvan2 :      2.11s CPU      2.12s WALL (     128 calls)

     Called by *cgdiagg:
     h_psi        :     61.92s CPU     63.90s WALL (   18353 calls)
     s_psi        :     39.81s CPU     40.27s WALL (   36676 calls)

     Called by h_psi:
     h_psi:calbec :     25.23s CPU     26.47s WALL (   18353 calls)
     vloc_psi     :      6.81s CPU      7.28s WALL (   18353 calls)
     add_vuspsi   :     22.87s CPU     23.09s WALL (   18353 calls)
     vhpsi        :      6.67s CPU      6.76s WALL (   18353 calls)
     hs_1psi      :     62.59s CPU     64.51s WALL (   18321 calls)
     s_1psi       :     34.63s CPU     35.33s WALL (   18321 calls)

     General routines
     calbec       :     55.67s CPU     57.69s WALL (   55093 calls)
     fft          :      0.36s CPU      0.42s WALL (     419 calls)
     ffts         :      0.02s CPU      0.02s WALL (      66 calls)
     fftw         :      6.49s CPU      7.02s WALL (   59350 calls)
     interpolate  :      0.04s CPU      0.04s WALL (      34 calls)
     davcio       :      0.00s CPU      0.00s WALL (       2 calls)

     Parallel routines
     fft_scatt_xy :      0.89s CPU      0.95s WALL (   59835 calls)
     fft_scatt_yz :      3.04s CPU      3.31s WALL (   59835 calls)

     Hubbard U routines
     new_ns       :      0.41s CPU      0.42s WALL (      16 calls)
     new_ns       :      0.41s CPU      0.42s WALL (      16 calls)
     vhpsi        :      6.67s CPU      6.76s WALL (   18353 calls)

     PWSCF        :   2m48.15s CPU   2m52.37s WALL


   This run was terminated on:  12:55:11  24Oct2024            

=------------------------------------------------------------------------------=
   JOB DONE.
=------------------------------------------------------------------------------=
