
     Program PWSCF v.6.7MaX starts on 30Sep2024 at  7:31:23 

     This program is part of the open-source Quantum ESPRESSO suite
     for quantum simulation of materials; please cite
         "P. Giannozzi et al., J. Phys.:Condens. Matter 21 395502 (2009);
         "P. Giannozzi et al., J. Phys.:Condens. Matter 29 465901 (2017);
          URL http://www.quantum-espresso.org", 
     in publications or presentations arising from this work. More details at
     http://www.quantum-espresso.org/quote

     Parallel version (MPI), running on     4 processors

     MPI processes distributed on     1 nodes
     R & G space division:  proc/nbgrp/npool/nimage =       4
     Waiting for input...
     Reading input from standard input

     Current dimensions of program PWSCF are:
     Max number of different atomic species (ntypx) = 10
     Max number of k-points (npk) =  40000
     Max angular momentum in pseudopotentials (lmaxx) =  3
     Message from routine input:
     WARNING: "startingwfc" set to atomic+random may spoil restart
     Message from routine input:
     WARNING: "startingpot" set to random may spoil restart

     Subspace diagonalization in iterative solution of the eigenvalue problem:
     one sub-group per band group will be used
     scalapack distributed-memory algorithm (size of sub-group:  2*  2 procs)

     Message from routine setup:
     using ibrav=0 with symmetry is DISCOURAGED, use correct ibrav instead

     Parallelization info
     --------------------
     sticks:   dense  smooth     PW     G-vecs:    dense   smooth      PW
     Min         191     191     55                10703    10703    1662
     Max         193     193     57                10706    10706    1663
     Sum         769     769    223                42815    42815    6651



     bravais-lattice index     =            0
     lattice parameter (alat)  =      10.5468  a.u.
     unit-cell volume          =    2535.5110 (a.u.)^3
     number of atoms/cell      =           30
     number of atomic types    =            4
     number of electrons       =       294.00
     number of Kohn-Sham states=          200
     kinetic-energy cutoff     =      25.0000  Ry
     charge density cutoff     =     100.0000  Ry
     scf convergence threshold =      1.0E-03
     mixing beta               =       0.2000
     number of iterations used =            8  plain     mixing
     Exchange-correlation=  SLA  PW   PBX  PBC
                           (   1   4   3   4   0   0   0)

     celldm(1)=  10.546849  celldm(2)=   0.000000  celldm(3)=   0.000000
     celldm(4)=   0.000000  celldm(5)=   0.000000  celldm(6)=   0.000000

     crystal axes: (cart. coord. in units of alat)
               a(1) = (   1.000000  -0.000000  -0.000000 )  
               a(2) = (  -0.500000   0.866025  -0.000000 )  
               a(3) = (   0.000000  -0.000000   2.495552 )  

     reciprocal axes: (cart. coord. in units 2 pi/alat)
               b(1) = (  1.000000  0.577350  0.000000 )  
               b(2) = (  0.000000  1.154701  0.000000 )  
               b(3) = (  0.000000  0.000000  0.400713 )  


     PseudoPot. # 1 for O  read from file:
     /home/aldair1809/Programas/QE/q-e-qe-7.3/pseudo/o_pbe_v1.2.uspp.F.UPF
     MD5 check sum: 734c27235a0248c51dbae37a1fbe46ec
     Pseudo is Ultrasoft + core correction, Zval =  6.0
     Generated by new atomic code, or converted to UPF format
     Using radial grid of  737 points,  5 beta functions with: 
                l(1) =   0
                l(2) =   0
                l(3) =   1
                l(4) =   1
                l(5) =   2
     Q(r) pseudized with  8 coefficients,  rinner =    0.900   0.900   0.900
                                                       0.900   0.900

     PseudoPot. # 2 for Bi read from file:
     /home/aldair1809/Programas/QE/q-e-qe-7.3/pseudo/bi_pbe_v1.uspp.F.UPF
     MD5 check sum: cceb9f28ec65b6d7ff33140f5b0b1758
     Pseudo is Ultrasoft + core correction, Zval = 15.0
     Generated by new atomic code, or converted to UPF format
     Using radial grid of  899 points,  6 beta functions with: 
                l(1) =   0
                l(2) =   0
                l(3) =   1
                l(4) =   1
                l(5) =   2
                l(6) =   2
     Q(r) pseudized with  6 coefficients,  rinner =    1.000   1.000   1.000
                                                       1.000   1.000

     PseudoPot. # 3 for Fe read from file:
     /home/aldair1809/Programas/QE/q-e-qe-7.3/pseudo/fe_pbe_v1.5.uspp.F.UPF
     MD5 check sum: a130daea23fe5165f5d574ae7f82ed95
     Pseudo is Ultrasoft + core correction, Zval = 16.0
     Generated by new atomic code, or converted to UPF format
     Using radial grid of  861 points,  6 beta functions with: 
                l(1) =   0
                l(2) =   0
                l(3) =   1
                l(4) =   1
                l(5) =   2
                l(6) =   2
     Q(r) pseudized with  8 coefficients,  rinner =    1.000   1.000   1.000
                                                       1.000   1.000

     PseudoPot. # 4 for Fe read from file:
     /home/aldair1809/Programas/QE/q-e-qe-7.3/pseudo/fe_pbe_v1.5.uspp.F.UPF
     MD5 check sum: a130daea23fe5165f5d574ae7f82ed95
     Pseudo is Ultrasoft + core correction, Zval = 16.0
     Generated by new atomic code, or converted to UPF format
     Using radial grid of  861 points,  6 beta functions with: 
                l(1) =   0
                l(2) =   0
                l(3) =   1
                l(4) =   1
                l(5) =   2
                l(6) =   2
     Q(r) pseudized with  8 coefficients,  rinner =    1.000   1.000   1.000
                                                       1.000   1.000

     atomic species   valence    mass     pseudopotential
        O              6.00    15.99940     O ( 1.00)
        Bi            15.00   208.98040     Bi( 1.00)
        Fe1           16.00    55.84500     Fe( 1.00)
        Fe2           16.00    55.84500     Fe( 1.00)

     Starting magnetic structure 
     atomic species   magnetization
        O            0.000
        Bi           0.000
        Fe1         -0.800
        Fe2          0.800

      3 Sym. Ops. (no inversion) found


                                    s                        frac. trans.

      isym =  1     identity                                     

 cryst.   s( 1) = (     1          0          0      )
                  (     0          1          0      )
                  (     0          0          1      )

 cart.    s( 1) = (  1.0000000 -0.0000000  0.0000000 )
                  (  0.0000000  1.0000000  0.0000000 )
                  (  0.0000000  0.0000000  1.0000000 )


      isym =  2     120 deg rotation - cryst. axis [0,0,1]       

 cryst.   s( 2) = (     0          1          0      )
                  (    -1         -1          0      )
                  (     0          0          1      )

 cart.    s( 2) = ( -0.5000000 -0.8660254  0.0000000 )
                  (  0.8660254 -0.5000000  0.0000000 )
                  (  0.0000000  0.0000000  1.0000000 )


      isym =  3     120 deg rotation - cryst. axis [0,0,-1]      

 cryst.   s( 3) = (    -1         -1          0      )
                  (     1          0          0      )
                  (     0          0          1      )

 cart.    s( 3) = ( -0.5000000  0.8660254  0.0000000 )
                  ( -0.8660254 -0.5000000  0.0000000 )
                  (  0.0000000  0.0000000  1.0000000 )


   Cartesian axes

     site n.     atom                  positions (alat units)
         1           Fe1 tau(   1) = (   0.0000000   0.0000000   1.9384582  )
         2           Fe1 tau(   2) = (  -0.0000005   0.5773506   2.3615556  )
         3           Fe1 tau(   3) = (   0.5000005   0.2886748   1.5200787  )
         4           Fe2 tau(   4) = (   0.5000005   0.2886748   0.2722626  )
         5           Fe2 tau(   5) = (   0.0000000   0.0000000   0.6907071  )
         6           Fe2 tau(   6) = (  -0.0000005   0.5773506   1.1137452  )
         7           Bi  tau(   7) = (   0.5000005   0.2886748   2.0843143  )
         8           Bi  tau(   8) = (  -0.0000005   0.5773506   1.6713980  )
         9           Bi  tau(   9) = (  -0.0000005   0.5773506   0.4235448  )
        10           Bi  tau(  10) = (   0.0000000   0.0000000   0.0002821  )
        11           Bi  tau(  11) = (   0.0000000   0.0000000   1.2481025  )
        12           Bi  tau(  12) = (   0.5000005   0.2886748   0.8364865  )
        13           O   tau(  13) = (  -0.3105904   0.6551932   2.2011299  )
        14           O   tau(  14) = (   0.0878817   0.2694488   2.2011299  )
        15           O   tau(  15) = (   0.2227102   0.8074080   2.2011299  )
        16           O   tau(  16) = (   0.4087504   0.5589755   1.7846473  )
        17           O   tau(  17) = (   0.3115373   0.0745013   1.7846473  )
        18           O   tau(  18) = (   0.7797108   0.2325494   1.7846473  )
        19           O   tau(  19) = (   0.6884743   0.0745026   0.5368244  )
        20           O   tau(  20) = (   0.5912412   0.5589858   0.5368244  )
        21           O   tau(  21) = (   0.2202830   0.2325379   0.5368244  )
        22           O   tau(  22) = (  -0.0823010   0.8482993   0.1166193  )
        23           O   tau(  23) = (  -0.1934983   0.3706010   0.1166193  )
        24           O   tau(  24) = (   0.2757993   0.5131505   0.1166193  )
        25           O   tau(  25) = (   0.1934855   0.3705936   1.3644430  )
        26           O   tau(  26) = (   0.0823138   0.8482919   1.3644430  )
        27           O   tau(  27) = (  -0.2757993   0.5131653   1.3644430  )
        28           O   tau(  28) = (  -0.0878870   0.2694458   0.9533686  )
        29           O   tau(  29) = (   0.3105971   0.6551893   0.9533686  )
        30           O   tau(  30) = (  -0.2227086   0.8074149   0.9533686  )

   Crystallographic axes

     site n.     atom                  positions (cryst. coord.)
         1           Fe1 tau(   1) = (  0.0000000  0.0000000  0.7767652  )
         2           Fe1 tau(   2) = (  0.3333330  0.6666670  0.9463058  )
         3           Fe1 tau(   3) = (  0.6666670  0.3333330  0.6091152  )
         4           Fe2 tau(   4) = (  0.6666670  0.3333330  0.1090991  )
         5           Fe2 tau(   5) = (  0.0000000  0.0000000  0.2767753  )
         6           Fe2 tau(   6) = (  0.3333330  0.6666670  0.4462921  )
         7           Bi  tau(   7) = (  0.6666670  0.3333330  0.8352117  )
         8           Bi  tau(   8) = (  0.3333330  0.6666670  0.6697508  )
         9           Bi  tau(   9) = (  0.3333330  0.6666670  0.1697199  )
        10           Bi  tau(  10) = (  0.0000000  0.0000000  0.0001130  )
        11           Bi  tau(  11) = (  0.0000000  0.0000000  0.5001308  )
        12           Bi  tau(  12) = (  0.6666670  0.3333330  0.3351910  )
        13           O   tau(  13) = (  0.0676856  0.7565520  0.8820212  )
        14           O   tau(  14) = (  0.2434480  0.3111326  0.8820212  )
        15           O   tau(  15) = (  0.6888674  0.9323144  0.8820212  )
        16           O   tau(  16) = (  0.7314750  0.6454493  0.7151312  )
        17           O   tau(  17) = (  0.3545507  0.0860267  0.7151312  )
        18           O   tau(  18) = (  0.9139733  0.2685250  0.7151312  )
        19           O   tau(  19) = (  0.7314884  0.0860282  0.2151125  )
        20           O   tau(  20) = (  0.9139718  0.6454612  0.2151125  )
        21           O   tau(  21) = (  0.3545388  0.2685116  0.2151125  )
        22           O   tau(  22) = (  0.4074649  0.9795317  0.0467309  )
        23           O   tau(  23) = (  0.0204683  0.4279331  0.0467309  )
        24           O   tau(  24) = (  0.5720669  0.5925351  0.0467309  )
        25           O   tau(  25) = (  0.4074478  0.4279246  0.5467499  )
        26           O   tau(  26) = (  0.5720754  0.9795232  0.5467499  )
        27           O   tau(  27) = (  0.0204768  0.5925522  0.5467499  )
        28           O   tau(  28) = (  0.0676775  0.3111292  0.3820271  )
        29           O   tau(  29) = (  0.6888708  0.7565474  0.3820271  )
        30           O   tau(  30) = (  0.2434526  0.9323225  0.3820271  )

     number of k points=    19  Gaussian smearing, width (Ry)=  0.0100
                       cart. coord. in units 2pi/alat
        k(    1) = (   0.0000000   0.0000000   0.0000000), wk =   0.0100000
        k(    2) = (   0.0000000   0.0000000   0.1001782), wk =   0.0200000
        k(    3) = (   0.0000000   0.0000000  -0.2003565), wk =   0.0100000
        k(    4) = (   0.0000000   0.2309401   0.0000000), wk =   0.0600000
        k(    5) = (   0.0000000   0.2309401   0.1001782), wk =   0.0600000
        k(    6) = (   0.0000000   0.2309401  -0.2003565), wk =   0.0600000
        k(    7) = (   0.0000000   0.4618802   0.0000000), wk =   0.0600000
        k(    8) = (   0.0000000   0.4618802   0.1001782), wk =   0.0600000
        k(    9) = (   0.0000000   0.4618802  -0.2003565), wk =   0.0600000
        k(   10) = (   0.2000000   0.3464102   0.0000000), wk =   0.0600000
        k(   11) = (   0.2000000   0.3464102   0.1001782), wk =   0.0600000
        k(   12) = (   0.2000000   0.3464102  -0.2003565), wk =   0.0600000
        k(   13) = (   0.2000000   0.5773503   0.0000000), wk =   0.0600000
        k(   14) = (   0.2000000   0.5773503   0.1001782), wk =   0.0600000
        k(   15) = (   0.2000000   0.5773503  -0.2003565), wk =   0.0600000
        k(   16) = (  -0.2000000   0.1154701   0.1001782), wk =   0.0600000
        k(   17) = (  -0.4000000   0.2309401   0.1001782), wk =   0.0600000
        k(   18) = (   0.2000000  -0.3464102  -0.1001782), wk =   0.0600000
        k(   19) = (   0.2000000  -0.5773503  -0.1001782), wk =   0.0600000

                       cryst. coord.
        k(    1) = (   0.0000000   0.0000000   0.0000000), wk =   0.0100000
        k(    2) = (   0.0000000   0.0000000   0.2500000), wk =   0.0200000
        k(    3) = (   0.0000000   0.0000000  -0.5000000), wk =   0.0100000
        k(    4) = (   0.0000000   0.2000000   0.0000000), wk =   0.0600000
        k(    5) = (   0.0000000   0.2000000   0.2500000), wk =   0.0600000
        k(    6) = (   0.0000000   0.2000000  -0.5000000), wk =   0.0600000
        k(    7) = (   0.0000000   0.4000000   0.0000000), wk =   0.0600000
        k(    8) = (   0.0000000   0.4000000   0.2500000), wk =   0.0600000
        k(    9) = (   0.0000000   0.4000000  -0.5000000), wk =   0.0600000
        k(   10) = (   0.2000000   0.2000000   0.0000000), wk =   0.0600000
        k(   11) = (   0.2000000   0.2000000   0.2500000), wk =   0.0600000
        k(   12) = (   0.2000000   0.2000000  -0.5000000), wk =   0.0600000
        k(   13) = (   0.2000000   0.4000000   0.0000000), wk =   0.0600000
        k(   14) = (   0.2000000   0.4000000   0.2500000), wk =   0.0600000
        k(   15) = (   0.2000000   0.4000000  -0.5000000), wk =   0.0600000
        k(   16) = (  -0.2000000   0.2000000   0.2500000), wk =   0.0600000
        k(   17) = (  -0.4000000   0.4000000   0.2500000), wk =   0.0600000
        k(   18) = (   0.2000000  -0.4000000  -0.2500000), wk =   0.0600000
        k(   19) = (   0.2000000  -0.6000000  -0.2500000), wk =   0.0600000

     Dense  grid:    42815 G-vectors     FFT dimensions: (  36,  36,  90)

     Dynamical RAM for                 wfc:       4.08 MB

     Dynamical RAM for     wfc (w. buffer):     159.25 MB

     Dynamical RAM for           str. fact:       0.65 MB

     Dynamical RAM for           local pot:       0.00 MB

     Dynamical RAM for          nlocal pot:       9.19 MB

     Dynamical RAM for                qrad:       3.22 MB

     Dynamical RAM for          rho,v,vnew:       2.34 MB

     Dynamical RAM for               rhoin:       0.78 MB

     Dynamical RAM for            rho*nmix:       5.23 MB

     Dynamical RAM for           G-vectors:       0.69 MB

     Dynamical RAM for          h,s,v(r/c):       0.46 MB

     Dynamical RAM for          <psi|beta>:       1.37 MB

     Dynamical RAM for      wfcinit/wfcrot:       9.28 MB

     Dynamical RAM for           addusdens:      33.48 MB

     Estimated static dynamical RAM per process >     183.53 MB

     Estimated max dynamical RAM per process >     217.01 MB

     Estimated total dynamical RAM >     868.04 MB

     Atomic positions and unit cell read from directory:
     /home/aldair1809/Documentos/QE/4BFO/UHUBBARD/temp/kpoints_ecutwfc_5.in/bifeo3-scf.save/


     Check: negative core charge=   -0.000640
     Generating pointlists ...
     new r_m :   0.1458 (alat units)  1.5374 (a.u.) for type    1
     new r_m :   0.1687 (alat units)  1.7788 (a.u.) for type    2
     new r_m :   0.1458 (alat units)  1.5374 (a.u.) for type    3
     new r_m :   0.1458 (alat units)  1.5374 (a.u.) for type    4

     The initial density is read from file :
     /home/aldair1809/Documentos/QE/4BFO/UHUBBARD/temp/kpoints_ecutwfc_5.in/bifeo3-scf.save/charge-density


     negative rho (up, down):  1.115E-01 1.115E-01
     Starting wfcs are  204 randomized atomic wfcs
     Calculation restarted from scf iteration #    14

     total cpu time spent up to now is       72.6 secs

     Self-consistent Calculation

     iteration # 14     ecut=    25.00 Ry     beta= 0.20
     Calculation restarted from kpoint #    17
     CG style diagonalization
     c_bands:  2 eigenvalues not converged
     c_bands:  2 eigenvalues not converged
     c_bands:  4 eigenvalues not converged
     c_bands:  1 eigenvalues not converged
     c_bands:  1 eigenvalues not converged
     c_bands:  4 eigenvalues not converged
     c_bands:  2 eigenvalues not converged
     c_bands:  5 eigenvalues not converged
     c_bands:  2 eigenvalues not converged
     c_bands:  1 eigenvalues not converged
     c_bands:  5 eigenvalues not converged
     c_bands:  3 eigenvalues not converged
     c_bands:  2 eigenvalues not converged
     c_bands:  5 eigenvalues not converged
     c_bands:  2 eigenvalues not converged
     c_bands:  4 eigenvalues not converged
     c_bands:  4 eigenvalues not converged
     c_bands:  5 eigenvalues not converged
     c_bands:  5 eigenvalues not converged
     c_bands:  4 eigenvalues not converged
     c_bands:  5 eigenvalues not converged
     ethr =  1.06E-06,  avg # of iterations = 14.3

     negative rho (up, down):  1.115E-01 1.115E-01

     total cpu time spent up to now is     1638.5 secs

     total energy              =   -3193.10458110 Ry
     estimated scf accuracy    <       0.15472482 Ry

     total magnetization       =     0.00 Bohr mag/cell
     absolute magnetization    =    28.85 Bohr mag/cell

     iteration # 15     ecut=    25.00 Ry     beta= 0.20
     CG style diagonalization
     c_bands:  3 eigenvalues not converged
     c_bands:  1 eigenvalues not converged
     c_bands:  3 eigenvalues not converged
     c_bands:  4 eigenvalues not converged
     c_bands:  4 eigenvalues not converged
     c_bands:  3 eigenvalues not converged
     c_bands:  1 eigenvalues not converged
     c_bands:  3 eigenvalues not converged
     c_bands:  2 eigenvalues not converged
     c_bands:  1 eigenvalues not converged
     c_bands:  3 eigenvalues not converged
     c_bands:  2 eigenvalues not converged
     c_bands:  2 eigenvalues not converged
     c_bands:  2 eigenvalues not converged
     c_bands:  2 eigenvalues not converged
     c_bands:  4 eigenvalues not converged
     c_bands:  1 eigenvalues not converged
     c_bands:  1 eigenvalues not converged
     c_bands:  1 eigenvalues not converged
     ethr =  1.06E-06,  avg # of iterations =  9.9

     negative rho (up, down):  1.117E-01 1.117E-01

     Magnetic moment per site:
     atom:    1    charge:   13.0435    magn:   -3.7186    constr:    0.0000
     atom:    2    charge:   13.0531    magn:   -3.6035    constr:    0.0000
     atom:    3    charge:   13.0633    magn:   -3.5967    constr:    0.0000
     atom:    4    charge:   13.0615    magn:    3.5968    constr:    0.0000
     atom:    5    charge:   13.0434    magn:    3.7179    constr:    0.0000
     atom:    6    charge:   13.0515    magn:    3.6034    constr:    0.0000
     atom:    7    charge:   10.4856    magn:   -0.0163    constr:    0.0000
     atom:    8    charge:   10.4848    magn:   -0.0128    constr:    0.0000
     atom:    9    charge:   10.4848    magn:    0.0128    constr:    0.0000
     atom:   10    charge:   10.4879    magn:   -0.0040    constr:    0.0000
     atom:   11    charge:   10.4878    magn:    0.0040    constr:    0.0000
     atom:   12    charge:   10.4856    magn:    0.0163    constr:    0.0000
     atom:   13    charge:    5.4008    magn:   -0.2162    constr:    0.0000
     atom:   14    charge:    5.4008    magn:   -0.2162    constr:    0.0000
     atom:   15    charge:    5.4008    magn:   -0.2162    constr:    0.0000
     atom:   16    charge:    5.3982    magn:   -0.2287    constr:    0.0000
     atom:   17    charge:    5.3982    magn:   -0.2287    constr:    0.0000
     atom:   18    charge:    5.3982    magn:   -0.2287    constr:    0.0000
     atom:   19    charge:    5.3978    magn:    0.2288    constr:    0.0000
     atom:   20    charge:    5.3978    magn:    0.2288    constr:    0.0000
     atom:   21    charge:    5.3978    magn:    0.2288    constr:    0.0000
     atom:   22    charge:    5.3910    magn:    0.0704    constr:    0.0000
     atom:   23    charge:    5.3910    magn:    0.0704    constr:    0.0000
     atom:   24    charge:    5.3910    magn:    0.0704    constr:    0.0000
     atom:   25    charge:    5.3909    magn:   -0.0706    constr:    0.0000
     atom:   26    charge:    5.3909    magn:   -0.0706    constr:    0.0000
     atom:   27    charge:    5.3909    magn:   -0.0706    constr:    0.0000
     atom:   28    charge:    5.4004    magn:    0.2163    constr:    0.0000
     atom:   29    charge:    5.4004    magn:    0.2163    constr:    0.0000
     atom:   30    charge:    5.4004    magn:    0.2163    constr:    0.0000

     total cpu time spent up to now is     2837.9 secs

     End of self-consistent calculation

 ------ SPIN UP ------------


          k = 0.0000 0.0000 0.0000 (  5411 PWs)   bands (ev):

   -79.6572 -79.5022 -79.3591 -74.6767 -74.6691 -74.5318 -45.5051 -45.4580
   -45.4580 -45.3233 -45.3233 -45.3153 -45.2529 -45.1484 -45.1484 -40.6870
   -40.6707 -40.6358 -40.6358 -40.6229 -40.6229 -40.5410 -40.4959 -40.4959
   -11.2526 -11.2526 -11.2150 -11.2149 -11.1966 -11.1966 -11.1635 -11.1502
   -11.1398 -11.1398 -11.1354 -11.1354 -11.1260 -11.1260 -11.1057 -11.0895
   -11.0807 -11.0807 -11.0740 -11.0740 -11.0691 -11.0691 -11.0633 -11.0596
   -11.0596 -11.0516 -11.0355 -11.0355 -11.0224 -11.0224  -7.9893  -7.6127
    -7.5163  -6.7599  -6.7110  -6.3132  -6.3131  -6.1901  -6.1900  -6.1899
    -6.0871  -6.0871  -5.9922  -5.9921  -5.8373  -5.8373  -5.6688  -5.6688
     0.8197   1.0567   1.1348   1.9060   2.0390   2.7899   4.9440   4.9441
     5.0607   5.4389   5.4389   5.5406   5.5406   5.5416   5.7262   5.7359
     5.7359   5.9488   6.0102   6.0102   6.2008   6.2009   6.2667   6.4238
     6.4239   6.4254   6.5193   6.7329   6.7329   7.0224   7.0225   7.1729
     7.3333   7.6104   7.6104   7.7248   7.8465   7.8465   7.9638   7.9638
     8.1560   8.2952   8.3392   8.3392   8.5091   8.5091   8.5198   8.6380
     8.6596   8.6597   8.8197   8.8197   8.9702   8.9702   9.3124   9.3125
     9.3617   9.3618   9.3632   9.4201   9.4201   9.7635   9.7635  10.0871
    10.1865  10.1865  10.2520  10.4248  10.5216  10.6566  10.7308  10.8813
    10.8814  11.5236  11.5236  12.0512  12.0512  12.2771  12.2771  12.2772
    12.3389  12.3626  12.4410  12.4410  13.2087  13.2087  13.8352  13.8352
    14.3840  14.3840  15.0645  15.1788  15.2834  15.3289  16.3776  16.3776
    16.5119  16.5119  16.5563  16.5564  16.8489  16.9103  17.1030  17.1030
    17.1788  17.1788  17.5900  17.5900  18.2980  19.6010  19.8220  19.9902
    20.6956  20.6956  20.9792  21.0565  21.6989  21.6993  21.8057  21.8061
    22.1312  22.1312  22.8666  23.0491  23.0538  23.0430  23.2038  23.3402

     occupation numbers 
     1.0000   1.0000   1.0000   1.0000   1.0000   1.0000   1.0000   1.0000
     1.0000   1.0000   1.0000   1.0000   1.0000   1.0000   1.0000   1.0000
     1.0000   1.0000   1.0000   1.0000   1.0000   1.0000   1.0000   1.0000
     1.0000   1.0000   1.0000   1.0000   1.0000   1.0000   1.0000   1.0000
     1.0000   1.0000   1.0000   1.0000   1.0000   1.0000   1.0000   1.0000
     1.0000   1.0000   1.0000   1.0000   1.0000   1.0000   1.0000   1.0000
     1.0000   1.0000   1.0000   1.0000   1.0000   1.0000   1.0000   1.0000
     1.0000   1.0000   1.0000   1.0000   1.0000   1.0000   1.0000   1.0000
     1.0000   1.0000   1.0000   1.0000   1.0000   1.0000   1.0000   1.0000
     1.0000   1.0000   1.0000   1.0000   1.0000   1.0000   1.0000   1.0000
     1.0000   1.0000   1.0000   1.0000   1.0000   1.0000   1.0000   1.0000
     1.0000   1.0000   1.0000   1.0000   1.0000   1.0000   1.0000   1.0000
     1.0000   1.0000   1.0000   1.0000   1.0000   1.0000   1.0000   1.0000
     1.0000   1.0000   1.0000   1.0000   1.0000   1.0000   1.0000   1.0000
     1.0000   1.0000   1.0000   1.0000   1.0000   1.0000   1.0000   1.0000
     1.0000   1.0000   1.0000   1.0000   1.0000   1.0000   1.0000   1.0000
     1.0000   1.0000   1.0000   1.0000   1.0000   1.0000   1.0000   1.0000
     1.0000   1.0000   1.0000   1.0000   1.0000   1.0000   1.0000   1.0000
     1.0000   0.9934   0.9934   0.0013   0.0013   0.0000   0.0000   0.0000
     0.0000   0.0000   0.0000   0.0000   0.0000   0.0000   0.0000   0.0000
     0.0000   0.0000   0.0000   0.0000   0.0000   0.0000   0.0000   0.0000
     0.0000   0.0000   0.0000   0.0000   0.0000   0.0000   0.0000   0.0000
     0.0000   0.0000   0.0000   0.0000   0.0000   0.0000   0.0000   0.0000
     0.0000   0.0000   0.0000   0.0000   0.0000   0.0000   0.0000   0.0000
     0.0000   0.0000   0.0000   0.0000   0.0000   0.0000   0.0000   0.0000

          k = 0.0000 0.0000 0.1002 (  5388 PWs)   bands (ev):

   -79.6562 -79.5011 -79.3580 -74.6758 -74.6681 -74.5308 -45.4966 -45.4553
   -45.4553 -45.3207 -45.3206 -45.3074 -45.2428 -45.1454 -45.1453 -40.6805
   -40.6612 -40.6338 -40.6337 -40.6200 -40.6199 -40.5321 -40.4930 -40.4930
   -11.2503 -11.2503 -11.2248 -11.2247 -11.1836 -11.1833 -11.1632 -11.1500
   -11.1484 -11.1477 -11.1335 -11.1321 -11.1257 -11.1249 -11.1032 -11.0907
   -11.0798 -11.0792 -11.0753 -11.0740 -11.0678 -11.0676 -11.0622 -11.0607
   -11.0596 -11.0511 -11.0342 -11.0339 -11.0236 -11.0235  -7.9742  -7.7147
    -7.3732  -6.9490  -6.5526  -6.3132  -6.3131  -6.2153  -6.1908  -6.1905
    -6.0839  -6.0831  -5.9968  -5.9960  -5.8352  -5.8350  -5.6693  -5.6693
     0.8327   0.9727   1.2621   1.6970   2.2618   2.7176   4.9605   4.9606
     5.0766   5.3556   5.3562   5.4368   5.5648   5.6342   5.6782   5.8469
     5.8629   5.9486   5.9728   6.0928   6.2417   6.2531   6.2991   6.4014
     6.4038   6.4493   6.5198   6.6422   6.6843   6.9507   7.0148   7.0437
     7.5213   7.5997   7.6384   7.7374   7.7981   7.8011   7.9432   8.0591
     8.1445   8.3014   8.3064   8.4365   8.4543   8.5075   8.5302   8.6846
     8.7091   8.7971   8.8305   8.8527   8.9705   9.0403   9.2014   9.2029
     9.2768   9.2897   9.3394   9.4950   9.5112   9.7316   9.7399  10.1162
    10.2050  10.2225  10.2706  10.3956  10.5308  10.6531  10.7881  10.8809
    10.8962  11.5164  11.5343  12.0522  12.0654  12.2833  12.2851  12.2920
    12.3617  12.3739  12.4389  12.4447  13.2095  13.2125  13.8458  13.8491
    14.3823  14.3833  14.8056  14.8848  15.7049  15.7414  16.3734  16.3766
    16.4591  16.4660  16.6511  16.6536  16.6731  16.7149  16.9590  16.9643
    17.3062  17.3132  17.5605  17.5634  18.4192  19.4024  19.8005  20.3395
    20.7476  20.7548  20.7505  21.1172  21.3265  21.3371  22.1253  22.1871
    22.2857  22.3340  22.8393  22.8649  22.8336  23.0694  23.1102  23.2812

     occupation numbers 
     1.0000   1.0000   1.0000   1.0000   1.0000   1.0000   1.0000   1.0000
     1.0000   1.0000   1.0000   1.0000   1.0000   1.0000   1.0000   1.0000
     1.0000   1.0000   1.0000   1.0000   1.0000   1.0000   1.0000   1.0000
     1.0000   1.0000   1.0000   1.0000   1.0000   1.0000   1.0000   1.0000
     1.0000   1.0000   1.0000   1.0000   1.0000   1.0000   1.0000   1.0000
     1.0000   1.0000   1.0000   1.0000   1.0000   1.0000   1.0000   1.0000
     1.0000   1.0000   1.0000   1.0000   1.0000   1.0000   1.0000   1.0000
     1.0000   1.0000   1.0000   1.0000   1.0000   1.0000   1.0000   1.0000
     1.0000   1.0000   1.0000   1.0000   1.0000   1.0000   1.0000   1.0000
     1.0000   1.0000   1.0000   1.0000   1.0000   1.0000   1.0000   1.0000
     1.0000   1.0000   1.0000   1.0000   1.0000   1.0000   1.0000   1.0000
     1.0000   1.0000   1.0000   1.0000   1.0000   1.0000   1.0000   1.0000
     1.0000   1.0000   1.0000   1.0000   1.0000   1.0000   1.0000   1.0000
     1.0000   1.0000   1.0000   1.0000   1.0000   1.0000   1.0000   1.0000
     1.0000   1.0000   1.0000   1.0000   1.0000   1.0000   1.0000   1.0000
     1.0000   1.0000   1.0000   1.0000   1.0000   1.0000   1.0000   1.0000
     1.0000   1.0000   1.0000   1.0000   1.0000   1.0000   1.0000   1.0000
     1.0000   1.0000   1.0000   1.0000   1.0000   1.0000   1.0000   1.0000
     1.0000   0.9946   0.9910   0.0013   0.0008   0.0000   0.0000   0.0000
     0.0000   0.0000   0.0000   0.0000   0.0000   0.0000   0.0000   0.0000
     0.0000   0.0000   0.0000   0.0000   0.0000   0.0000   0.0000   0.0000
     0.0000   0.0000   0.0000   0.0000   0.0000   0.0000   0.0000   0.0000
     0.0000   0.0000   0.0000   0.0000   0.0000   0.0000   0.0000   0.0000
     0.0000   0.0000   0.0000   0.0000   0.0000   0.0000   0.0000   0.0000
     0.0000   0.0000   0.0000   0.0000   0.0000   0.0000   0.0000   0.0000

          k = 0.0000 0.0000-0.2004 (  5382 PWs)   bands (ev):

   -79.6558 -79.5007 -79.3577 -74.6755 -74.6678 -74.5305 -45.4884 -45.4570
   -45.4569 -45.3218 -45.3218 -45.3003 -45.2349 -45.1472 -45.1472 -40.6706
   -40.6566 -40.6359 -40.6359 -40.6205 -40.6205 -40.5250 -40.4947 -40.4947
   -11.2453 -11.2453 -11.2333 -11.2333 -11.1662 -11.1662 -11.1630 -11.1629
   -11.1629 -11.1502 -11.1316 -11.1316 -11.1244 -11.1244 -11.1016 -11.0934
   -11.0780 -11.0780 -11.0758 -11.0758 -11.0666 -11.0666 -11.0622 -11.0605
   -11.0605 -11.0517 -11.0327 -11.0327 -11.0244 -11.0244  -7.9537  -7.7765
    -7.1757  -7.1586  -6.4632  -6.3130  -6.3129  -6.2513  -6.1914  -6.1914
    -6.0797  -6.0797  -6.0010  -6.0008  -5.8330  -5.8330  -5.6698  -5.6698
     0.8601   0.9122   1.4488   1.4718   2.4864   2.5574   4.9897   4.9897
     5.1032   5.2923   5.2923   5.3562   5.6059   5.6059   5.7803   5.7804
     5.9574   6.0056   6.0493   6.0494   6.2872   6.3182   6.3183   6.4121
     6.4320   6.4320   6.5345   6.5533   6.5533   6.7711   7.0281   7.0281
     7.5873   7.6235   7.6236   7.7638   7.7657   7.7657   8.0162   8.0162
     8.1109   8.3252   8.3826   8.3826   8.4077   8.5314   8.5315   8.7491
     8.7491   8.8827   8.8827   8.9752   9.0163   9.0164   9.1377   9.1454
     9.1454   9.2552   9.2552   9.5551   9.5552   9.7190   9.7191  10.1452
    10.2447  10.2447  10.2892  10.3602  10.5062  10.6610  10.8122  10.8907
    10.8907  11.5298  11.5299  12.0686  12.0686  12.2772  12.2905  12.2905
    12.3586  12.3860  12.4421  12.4421  13.2194  13.2194  13.8562  13.8562
    14.3915  14.3916  14.6868  14.7435  16.1756  16.2100  16.2841  16.3454
    16.3741  16.3741  16.4370  16.4371  16.7824  16.7824  16.8011  16.8011
    17.4014  17.4014  17.5197  17.5197  18.5776  19.1601  20.0358  20.3021
    20.7852  20.8773  20.8773  21.0082  21.0829  21.0829  22.3957  22.3957
    22.5190  22.5196  22.7745  22.7719  22.8773  22.7770  23.0891  22.7891

     occupation numbers 
     1.0000   1.0000   1.0000   1.0000   1.0000   1.0000   1.0000   1.0000
     1.0000   1.0000   1.0000   1.0000   1.0000   1.0000   1.0000   1.0000
     1.0000   1.0000   1.0000   1.0000   1.0000   1.0000   1.0000   1.0000
     1.0000   1.0000   1.0000   1.0000   1.0000   1.0000   1.0000   1.0000
     1.0000   1.0000   1.0000   1.0000   1.0000   1.0000   1.0000   1.0000
     1.0000   1.0000   1.0000   1.0000   1.0000   1.0000   1.0000   1.0000
     1.0000   1.0000   1.0000   1.0000   1.0000   1.0000   1.0000   1.0000
     1.0000   1.0000   1.0000   1.0000   1.0000   1.0000   1.0000   1.0000
     1.0000   1.0000   1.0000   1.0000   1.0000   1.0000   1.0000   1.0000
     1.0000   1.0000   1.0000   1.0000   1.0000   1.0000   1.0000   1.0000
     1.0000   1.0000   1.0000   1.0000   1.0000   1.0000   1.0000   1.0000
     1.0000   1.0000   1.0000   1.0000   1.0000   1.0000   1.0000   1.0000
     1.0000   1.0000   1.0000   1.0000   1.0000   1.0000   1.0000   1.0000
     1.0000   1.0000   1.0000   1.0000   1.0000   1.0000   1.0000   1.0000
     1.0000   1.0000   1.0000   1.0000   1.0000   1.0000   1.0000   1.0000
     1.0000   1.0000   1.0000   1.0000   1.0000   1.0000   1.0000   1.0000
     1.0000   1.0000   1.0000   1.0000   1.0000   1.0000   1.0000   1.0000
     1.0000   1.0000   1.0000   1.0000   1.0000   1.0000   1.0000   1.0000
     1.0000   0.9921   0.9920   0.0007   0.0007   0.0000   0.0000   0.0000
     0.0000   0.0000   0.0000   0.0000   0.0000   0.0000   0.0000   0.0000
     0.0000   0.0000   0.0000   0.0000   0.0000   0.0000   0.0000   0.0000
     0.0000   0.0000   0.0000   0.0000   0.0000   0.0000   0.0000   0.0000
     0.0000   0.0000   0.0000   0.0000   0.0000   0.0000   0.0000   0.0000
     0.0000   0.0000   0.0000   0.0000   0.0000   0.0000   0.0000   0.0000
     0.0000   0.0000   0.0000   0.0000   0.0000   0.0000   0.0000   0.0000

          k = 0.0000 0.2309 0.0000 (  5365 PWs)   bands (ev):

   -79.6555 -79.5004 -79.3573 -74.6752 -74.6676 -74.5302 -45.4967 -45.4511
   -45.4497 -45.3164 -45.3147 -45.3073 -45.2428 -45.1415 -45.1396 -40.6803
   -40.6624 -40.6293 -40.6285 -40.6166 -40.6137 -40.5320 -40.4896 -40.4876
   -11.2460 -11.2349 -11.2287 -11.2187 -11.1770 -11.1710 -11.1635 -11.1593
   -11.1571 -11.1477 -11.1289 -11.1270 -11.1197 -11.1177 -11.1051 -11.0925
   -11.0826 -11.0807 -11.0780 -11.0762 -11.0707 -11.0691 -11.0637 -11.0619
   -11.0590 -11.0502 -11.0383 -11.0344 -11.0292 -11.0250  -7.8648  -7.5077
    -7.4081  -6.7591  -6.6930  -6.4272  -6.3808  -6.3291  -6.2366  -6.1541
    -6.1294  -6.1062  -6.0199  -6.0098  -5.8762  -5.8578  -5.6932  -5.6726
     0.8683   1.0668   1.1507   1.7821   1.9139   2.4321   5.0803   5.1267
     5.1646   5.3764   5.4702   5.5784   5.6326   5.6719   5.7471   5.7990
     5.9413   5.9882   6.1182   6.1625   6.2068   6.2478   6.3611   6.3915
     6.5653   6.6593   6.8151   6.8914   6.9652   7.1716   7.2033   7.3166
     7.4014   7.5649   7.6258   7.6838   7.8007   7.8357   7.8990   7.9666
     8.1147   8.1985   8.2569   8.3050   8.4163   8.4981   8.5317   8.6500
     8.6882   8.7378   8.8231   8.8851   8.9326   8.9856   9.0607   9.2106
     9.2226   9.2412   9.2865   9.4074   9.4528   9.5202   9.6007   9.9992
    10.1053  10.2134  10.3617  10.4394  10.5654  10.6869  10.7644  10.9113
    11.0620  11.4245  11.5115  12.0260  12.0772  12.1809  12.2788  12.3314
    12.3785  12.4201  12.4710  12.5875  13.2189  13.2768  13.7050  13.8237
    14.1909  14.3572  14.9356  15.1562  15.2062  15.3632  15.7237  16.0286
    16.1156  16.2612  16.5257  16.6883  16.7480  16.8081  16.8424  17.0726
    17.2183  17.3185  17.3370  17.4327  18.7423  19.8104  20.0436  20.2319
    21.0194  21.0730  21.1501  21.2119  21.6446  21.8519  22.1037  22.1812
    22.3066  22.4541  22.8285  22.9909  23.0551  23.1553  23.2457  23.3791

     occupation numbers 
     1.0000   1.0000   1.0000   1.0000   1.0000   1.0000   1.0000   1.0000
     1.0000   1.0000   1.0000   1.0000   1.0000   1.0000   1.0000   1.0000
     1.0000   1.0000   1.0000   1.0000   1.0000   1.0000   1.0000   1.0000
     1.0000   1.0000   1.0000   1.0000   1.0000   1.0000   1.0000   1.0000
     1.0000   1.0000   1.0000   1.0000   1.0000   1.0000   1.0000   1.0000
     1.0000   1.0000   1.0000   1.0000   1.0000   1.0000   1.0000   1.0000
     1.0000   1.0000   1.0000   1.0000   1.0000   1.0000   1.0000   1.0000
     1.0000   1.0000   1.0000   1.0000   1.0000   1.0000   1.0000   1.0000
     1.0000   1.0000   1.0000   1.0000   1.0000   1.0000   1.0000   1.0000
     1.0000   1.0000   1.0000   1.0000   1.0000   1.0000   1.0000   1.0000
     1.0000   1.0000   1.0000   1.0000   1.0000   1.0000   1.0000   1.0000
     1.0000   1.0000   1.0000   1.0000   1.0000   1.0000   1.0000   1.0000
     1.0000   1.0000   1.0000   1.0000   1.0000   1.0000   1.0000   1.0000
     1.0000   1.0000   1.0000   1.0000   1.0000   1.0000   1.0000   1.0000
     1.0000   1.0000   1.0000   1.0000   1.0000   1.0000   1.0000   1.0000
     1.0000   1.0000   1.0000   1.0000   1.0000   1.0000   1.0000   1.0000
     1.0000   1.0000   1.0000   1.0000   1.0000   1.0000   1.0000   1.0000
     1.0000   1.0000   1.0000   1.0000   1.0000   1.0000   1.0000   1.0000
     1.0000   0.9998   0.9954   0.0030   0.0005   0.0000   0.0000   0.0000
     0.0000   0.0000   0.0000   0.0000   0.0000   0.0000   0.0000   0.0000
     0.0000   0.0000   0.0000   0.0000   0.0000   0.0000   0.0000   0.0000
     0.0000   0.0000   0.0000   0.0000   0.0000   0.0000   0.0000   0.0000
     0.0000   0.0000   0.0000   0.0000   0.0000   0.0000   0.0000   0.0000
     0.0000   0.0000   0.0000   0.0000   0.0000   0.0000   0.0000   0.0000
     0.0000   0.0000   0.0000   0.0000   0.0000   0.0000   0.0000   0.0000

          k = 0.0000 0.2309 0.1002 (  5363 PWs)   bands (ev):

   -79.6553 -79.5003 -79.3572 -74.6750 -74.6675 -74.5301 -45.4956 -45.4509
   -45.4486 -45.3165 -45.3141 -45.3059 -45.2429 -45.1414 -45.1388 -40.6774
   -40.6629 -40.6282 -40.6273 -40.6175 -40.6134 -40.5319 -40.4894 -40.4870
   -11.2494 -11.2335 -11.2203 -11.2172 -11.1939 -11.1729 -11.1626 -11.1538
   -11.1484 -11.1463 -11.1317 -11.1270 -11.1195 -11.1193 -11.1040 -11.0939
   -11.0823 -11.0810 -11.0778 -11.0760 -11.0722 -11.0675 -11.0640 -11.0621
   -11.0592 -11.0502 -11.0386 -11.0358 -11.0292 -11.0228  -7.8512  -7.5978
    -7.2845  -6.8858  -6.6376  -6.3840  -6.3704  -6.3320  -6.2410  -6.1961
    -6.1112  -6.0981  -6.0199  -6.0095  -5.8821  -5.8594  -5.6922  -5.6722
     0.8722   1.0235   1.2195   1.6613   2.0344   2.4029   5.0597   5.1479
     5.1793   5.3661   5.4840   5.5789   5.6082   5.6515   5.8066   5.8404
     5.8670   6.0277   6.0759   6.1177   6.1975   6.2765   6.3528   6.4439
     6.5957   6.6488   6.7824   6.9059   6.9397   7.1523   7.2250   7.2910
     7.4516   7.5462   7.6159   7.7125   7.7669   7.8559   7.9116   7.9786
     8.0889   8.1906   8.2828   8.3177   8.3874   8.4817   8.5423   8.6155
     8.7549   8.7607   8.7925   8.8538   8.9658   9.0070   9.0478   9.1492
     9.2009   9.2474   9.3145   9.3996   9.4724   9.5596   9.5973   9.9918
    10.0970  10.1979  10.3414  10.4534  10.6189  10.6521  10.7968  10.9177
    11.0442  11.4261  11.5132  12.0206  12.0746  12.1766  12.2800  12.3295
    12.3825  12.4279  12.4727  12.5947  13.2240  13.2762  13.6940  13.8121
    14.1961  14.3648  14.7997  15.0532  15.3999  15.4948  15.6378  16.0719
    16.0903  16.3770  16.5561  16.6563  16.7243  16.7697  16.9249  16.9933
    17.0721  17.2476  17.4334  17.4613  18.8125  19.6743  19.9516  20.5063
    20.9364  21.1526  21.1585  21.2127  21.3650  21.8126  22.1646  22.2928
    22.4948  22.6261  22.7342  22.8705  23.0070  23.1107  23.2641  23.2484

     occupation numbers 
     1.0000   1.0000   1.0000   1.0000   1.0000   1.0000   1.0000   1.0000
     1.0000   1.0000   1.0000   1.0000   1.0000   1.0000   1.0000   1.0000
     1.0000   1.0000   1.0000   1.0000   1.0000   1.0000   1.0000   1.0000
     1.0000   1.0000   1.0000   1.0000   1.0000   1.0000   1.0000   1.0000
     1.0000   1.0000   1.0000   1.0000   1.0000   1.0000   1.0000   1.0000
     1.0000   1.0000   1.0000   1.0000   1.0000   1.0000   1.0000   1.0000
     1.0000   1.0000   1.0000   1.0000   1.0000   1.0000   1.0000   1.0000
     1.0000   1.0000   1.0000   1.0000   1.0000   1.0000   1.0000   1.0000
     1.0000   1.0000   1.0000   1.0000   1.0000   1.0000   1.0000   1.0000
     1.0000   1.0000   1.0000   1.0000   1.0000   1.0000   1.0000   1.0000
     1.0000   1.0000   1.0000   1.0000   1.0000   1.0000   1.0000   1.0000
     1.0000   1.0000   1.0000   1.0000   1.0000   1.0000   1.0000   1.0000
     1.0000   1.0000   1.0000   1.0000   1.0000   1.0000   1.0000   1.0000
     1.0000   1.0000   1.0000   1.0000   1.0000   1.0000   1.0000   1.0000
     1.0000   1.0000   1.0000   1.0000   1.0000   1.0000   1.0000   1.0000
     1.0000   1.0000   1.0000   1.0000   1.0000   1.0000   1.0000   1.0000
     1.0000   1.0000   1.0000   1.0000   1.0000   1.0000   1.0000   1.0000
     1.0000   1.0000   1.0000   1.0000   1.0000   1.0000   1.0000   1.0000
     1.0000   0.9998   0.9951   0.0036   0.0006   0.0000   0.0000   0.0000
     0.0000   0.0000   0.0000   0.0000   0.0000   0.0000   0.0000   0.0000
     0.0000   0.0000   0.0000   0.0000   0.0000   0.0000   0.0000   0.0000
     0.0000   0.0000   0.0000   0.0000   0.0000   0.0000   0.0000   0.0000
     0.0000   0.0000   0.0000   0.0000   0.0000   0.0000   0.0000   0.0000
     0.0000   0.0000   0.0000   0.0000   0.0000   0.0000   0.0000   0.0000
     0.0000   0.0000   0.0000   0.0000   0.0000   0.0000   0.0000   0.0000

          k = 0.0000 0.2309-0.2004 (  5358 PWs)   bands (ev):

   -79.6551 -79.5001 -79.3570 -74.6749 -74.6673 -74.5300 -45.4927 -45.4506
   -45.4490 -45.3158 -45.3140 -45.3033 -45.2405 -45.1409 -45.1392 -40.6739
   -40.6610 -40.6288 -40.6282 -40.6158 -40.6135 -40.5296 -40.4890 -40.4873
   -11.2487 -11.2373 -11.2193 -11.2115 -11.1923 -11.1852 -11.1627 -11.1508
   -11.1428 -11.1404 -11.1328 -11.1321 -11.1201 -11.1184 -11.1031 -11.0947
   -11.0824 -11.0810 -11.0779 -11.0770 -11.0703 -11.0677 -11.0644 -11.0615
   -11.0598 -11.0503 -11.0391 -11.0359 -11.0282 -11.0232  -7.8325  -7.6562
    -7.1053  -7.0788  -6.5798  -6.3967  -6.3753  -6.2877  -6.2406  -6.2246
    -6.1202  -6.0910  -6.0218  -6.0031  -5.8847  -5.8637  -5.6914  -5.6716
     0.8933   0.9590   1.3866   1.4634   2.2085   2.3015   5.0761   5.1556
     5.1728   5.3648   5.5024   5.5424   5.6204   5.6783   5.7381   5.8280
     5.8838   6.0231   6.0549   6.1241   6.1852   6.3028   6.3593   6.5090
     6.5724   6.7289   6.8059   6.8283   6.9435   7.1272   7.1823   7.2933
     7.4189   7.5419   7.6273   7.7228   7.8041   7.8888   7.9265   8.0141
     8.0717   8.1928   8.2650   8.3208   8.3686   8.4701   8.5471   8.5779
     8.7272   8.7436   8.8254   8.8639   8.9854   9.0115   9.0873   9.1538
     9.1925   9.2488   9.3273   9.3928   9.4715   9.5703   9.5913   9.9937
    10.0966  10.1708  10.3585  10.4348  10.5672  10.7146  10.8028  10.9197
    11.0656  11.4169  11.5068  12.0181  12.0785  12.1773  12.2855  12.3362
    12.3855  12.4281  12.4808  12.5968  13.2306  13.2729  13.6817  13.8156
    14.2002  14.3600  14.7959  14.9294  15.4505  15.5947  15.7282  15.9973
    16.1010  16.4020  16.4775  16.6388  16.7827  16.8549  16.8971  16.9597
    17.0831  17.1464  17.4426  17.4652  18.9003  19.4755  20.1479  20.4639
    20.9324  21.1114  21.1664  21.2595  21.4333  21.5367  22.3628  22.4591
    22.5129  22.6345  22.6891  22.7421  22.9345  23.0855  23.2431  23.2764

     occupation numbers 
     1.0000   1.0000   1.0000   1.0000   1.0000   1.0000   1.0000   1.0000
     1.0000   1.0000   1.0000   1.0000   1.0000   1.0000   1.0000   1.0000
     1.0000   1.0000   1.0000   1.0000   1.0000   1.0000   1.0000   1.0000
     1.0000   1.0000   1.0000   1.0000   1.0000   1.0000   1.0000   1.0000
     1.0000   1.0000   1.0000   1.0000   1.0000   1.0000   1.0000   1.0000
     1.0000   1.0000   1.0000   1.0000   1.0000   1.0000   1.0000   1.0000
     1.0000   1.0000   1.0000   1.0000   1.0000   1.0000   1.0000   1.0000
     1.0000   1.0000   1.0000   1.0000   1.0000   1.0000   1.0000   1.0000
     1.0000   1.0000   1.0000   1.0000   1.0000   1.0000   1.0000   1.0000
     1.0000   1.0000   1.0000   1.0000   1.0000   1.0000   1.0000   1.0000
     1.0000   1.0000   1.0000   1.0000   1.0000   1.0000   1.0000   1.0000
     1.0000   1.0000   1.0000   1.0000   1.0000   1.0000   1.0000   1.0000
     1.0000   1.0000   1.0000   1.0000   1.0000   1.0000   1.0000   1.0000
     1.0000   1.0000   1.0000   1.0000   1.0000   1.0000   1.0000   1.0000
     1.0000   1.0000   1.0000   1.0000   1.0000   1.0000   1.0000   1.0000
     1.0000   1.0000   1.0000   1.0000   1.0000   1.0000   1.0000   1.0000
     1.0000   1.0000   1.0000   1.0000   1.0000   1.0000   1.0000   1.0000
     1.0000   1.0000   1.0000   1.0000   1.0000   1.0000   1.0000   1.0000
     1.0000   0.9998   0.9960   0.0039   0.0005   0.0000   0.0000   0.0000
     0.0000   0.0000   0.0000   0.0000   0.0000   0.0000   0.0000   0.0000
     0.0000   0.0000   0.0000   0.0000   0.0000   0.0000   0.0000   0.0000
     0.0000   0.0000   0.0000   0.0000   0.0000   0.0000   0.0000   0.0000
     0.0000   0.0000   0.0000   0.0000   0.0000   0.0000   0.0000   0.0000
     0.0000   0.0000   0.0000   0.0000   0.0000   0.0000   0.0000   0.0000
     0.0000   0.0000   0.0000   0.0000   0.0000   0.0000   0.0000   0.0000

          k = 0.0000 0.4619 0.0000 (  5328 PWs)   bands (ev):

   -79.6543 -79.4993 -79.3562 -74.6742 -74.6666 -74.5293 -45.4921 -45.4465
   -45.4417 -45.3118 -45.3065 -45.3027 -45.2391 -45.1369 -45.1318 -40.6745
   -40.6599 -40.6247 -40.6200 -40.6126 -40.6071 -40.5284 -40.4853 -40.4805
   -11.2449 -11.2226 -11.2065 -11.1933 -11.1872 -11.1767 -11.1700 -11.1573
   -11.1441 -11.1398 -11.1270 -11.1227 -11.1191 -11.1120 -11.1066 -11.0988
   -11.0885 -11.0851 -11.0798 -11.0762 -11.0738 -11.0706 -11.0682 -11.0613
   -11.0596 -11.0492 -11.0475 -11.0387 -11.0363 -11.0250  -7.5278  -7.2725
    -7.1349  -7.0277  -6.7724  -6.5578  -6.5028  -6.4199  -6.2983  -6.2564
    -6.1766  -6.1459  -6.0570  -6.0216  -5.9059  -5.8835  -5.7572  -5.6846
     1.0018   1.0844   1.3639   1.4234   1.7790   1.8597   5.0704   5.3138
     5.3671   5.4757   5.5488   5.6575   5.7045   5.8228   5.9714   6.0210
     6.0756   6.1191   6.1854   6.2582   6.3613   6.4874   6.6189   6.6978
     6.7399   6.9050   7.0032   7.0355   7.1674   7.2288   7.3194   7.3421
     7.4414   7.5004   7.6144   7.7012   7.7802   7.7968   7.9488   8.0096
     8.0591   8.1281   8.2036   8.2986   8.3537   8.3880   8.5021   8.5351
     8.5996   8.6966   8.7374   8.8316   8.9547   9.0016   9.0742   9.1384
     9.1655   9.2136   9.2816   9.3830   9.4442   9.5003   9.5570   9.8677
    10.0612  10.2008  10.2879  10.3493  10.5078  10.6119  10.8466  10.9567
    10.9992  11.1277  11.4891  12.0362  12.1011  12.2100  12.2733  12.3503
    12.4056  12.4343  12.5888  12.7124  13.2669  13.3883  13.4866  13.7669
    13.8400  14.3097  14.6014  15.1404  15.1930  15.2705  15.4636  15.5456
    15.6042  15.6348  15.8639  16.6573  16.7251  16.7797  16.8251  16.8694
    17.0417  17.1266  17.1570  17.2584  19.6897  20.3438  20.4212  20.8271
    21.1148  21.2287  21.8149  21.8728  21.9369  22.0426  22.2320  22.3195
    22.4040  22.5525  22.7986  23.1018  23.1865  23.2186  23.3105  23.4407

     occupation numbers 
     1.0000   1.0000   1.0000   1.0000   1.0000   1.0000   1.0000   1.0000
     1.0000   1.0000   1.0000   1.0000   1.0000   1.0000   1.0000   1.0000
     1.0000   1.0000   1.0000   1.0000   1.0000   1.0000   1.0000   1.0000
     1.0000   1.0000   1.0000   1.0000   1.0000   1.0000   1.0000   1.0000
     1.0000   1.0000   1.0000   1.0000   1.0000   1.0000   1.0000   1.0000
     1.0000   1.0000   1.0000   1.0000   1.0000   1.0000   1.0000   1.0000
     1.0000   1.0000   1.0000   1.0000   1.0000   1.0000   1.0000   1.0000
     1.0000   1.0000   1.0000   1.0000   1.0000   1.0000   1.0000   1.0000
     1.0000   1.0000   1.0000   1.0000   1.0000   1.0000   1.0000   1.0000
     1.0000   1.0000   1.0000   1.0000   1.0000   1.0000   1.0000   1.0000
     1.0000   1.0000   1.0000   1.0000   1.0000   1.0000   1.0000   1.0000
     1.0000   1.0000   1.0000   1.0000   1.0000   1.0000   1.0000   1.0000
     1.0000   1.0000   1.0000   1.0000   1.0000   1.0000   1.0000   1.0000
     1.0000   1.0000   1.0000   1.0000   1.0000   1.0000   1.0000   1.0000
     1.0000   1.0000   1.0000   1.0000   1.0000   1.0000   1.0000   1.0000
     1.0000   1.0000   1.0000   1.0000   1.0000   1.0000   1.0000   1.0000
     1.0000   1.0000   1.0000   1.0000   1.0000   1.0000   1.0000   1.0000
     1.0000   1.0000   1.0000   1.0000   1.0000   1.0000   1.0000   1.0000
     1.0000   1.0000   0.9977   0.0022   0.0002   0.0000   0.0000   0.0000
     0.0000   0.0000   0.0000   0.0000   0.0000   0.0000   0.0000   0.0000
     0.0000   0.0000   0.0000   0.0000   0.0000   0.0000   0.0000   0.0000
     0.0000   0.0000   0.0000   0.0000   0.0000   0.0000   0.0000   0.0000
     0.0000   0.0000   0.0000   0.0000   0.0000   0.0000   0.0000   0.0000
     0.0000   0.0000   0.0000   0.0000   0.0000   0.0000   0.0000   0.0000
     0.0000   0.0000   0.0000   0.0000   0.0000   0.0000   0.0000   0.0000

          k = 0.0000 0.4619 0.1002 (  5344 PWs)   bands (ev):

   -79.6549 -79.4999 -79.3568 -74.6747 -74.6672 -74.5298 -45.4999 -45.4477
   -45.4412 -45.3130 -45.3104 -45.3063 -45.2474 -45.1381 -45.1314 -40.6810
   -40.6678 -40.6260 -40.6195 -40.6134 -40.6071 -40.5360 -40.4864 -40.4801
   -11.2419 -11.2302 -11.2070 -11.1931 -11.1754 -11.1732 -11.1702 -11.1652
   -11.1530 -11.1382 -11.1278 -11.1192 -11.1185 -11.1134 -11.1071 -11.0994
   -11.0866 -11.0832 -11.0804 -11.0793 -11.0746 -11.0707 -11.0667 -11.0623
   -11.0598 -11.0498 -11.0475 -11.0387 -11.0347 -11.0266  -7.5211  -7.2910
    -7.1575  -6.9757  -6.7546  -6.6031  -6.5161  -6.4303  -6.3099  -6.1998
    -6.1638  -6.1358  -6.0730  -6.0436  -5.9040  -5.8823  -5.7566  -5.6854
     1.0058   1.0985   1.2712   1.5391   1.7088   1.8858   5.0684   5.3036
     5.3671   5.4757   5.5614   5.6512   5.6927   5.8374   5.9201   6.0205
     6.0782   6.1624   6.2193   6.2552   6.3998   6.5133   6.5853   6.6633
     6.7448   6.8080   6.8787   7.0570   7.1658   7.2213   7.2851   7.4129
     7.4502   7.5586   7.6426   7.7264   7.7559   7.8079   7.9318   7.9905
     8.0653   8.1082   8.1753   8.3358   8.3647   8.4269   8.4785   8.5332
     8.5892   8.7485   8.7788   8.8394   8.8830   8.9875   9.0587   9.1056
     9.1773   9.2206   9.2786   9.3423   9.3801   9.4973   9.5352   9.8933
    10.0691  10.1931  10.3147  10.3402  10.5121  10.6338  10.8618  10.9554
    10.9822  11.1040  11.4878  12.0313  12.0965  12.2074  12.2723  12.3411
    12.4097  12.4283  12.5856  12.7086  13.2542  13.3833  13.4896  13.7672
    13.8386  14.2811  14.6418  15.0814  15.1537  15.1965  15.4723  15.5605
    15.7048  15.7673  15.8282  16.6112  16.6659  16.7367  16.8064  16.9509
    17.0257  17.1034  17.1573  17.2719  19.7222  20.3089  20.3740  20.8106
    21.1561  21.3052  21.8385  21.8856  21.9671  22.0572  22.1298  22.3147
    22.4517  22.4948  22.8554  23.0578  23.1580  23.2577  23.3190  23.4420

     occupation numbers 
     1.0000   1.0000   1.0000   1.0000   1.0000   1.0000   1.0000   1.0000
     1.0000   1.0000   1.0000   1.0000   1.0000   1.0000   1.0000   1.0000
     1.0000   1.0000   1.0000   1.0000   1.0000   1.0000   1.0000   1.0000
     1.0000   1.0000   1.0000   1.0000   1.0000   1.0000   1.0000   1.0000
     1.0000   1.0000   1.0000   1.0000   1.0000   1.0000   1.0000   1.0000
     1.0000   1.0000   1.0000   1.0000   1.0000   1.0000   1.0000   1.0000
     1.0000   1.0000   1.0000   1.0000   1.0000   1.0000   1.0000   1.0000
     1.0000   1.0000   1.0000   1.0000   1.0000   1.0000   1.0000   1.0000
     1.0000   1.0000   1.0000   1.0000   1.0000   1.0000   1.0000   1.0000
     1.0000   1.0000   1.0000   1.0000   1.0000   1.0000   1.0000   1.0000
     1.0000   1.0000   1.0000   1.0000   1.0000   1.0000   1.0000   1.0000
     1.0000   1.0000   1.0000   1.0000   1.0000   1.0000   1.0000   1.0000
     1.0000   1.0000   1.0000   1.0000   1.0000   1.0000   1.0000   1.0000
     1.0000   1.0000   1.0000   1.0000   1.0000   1.0000   1.0000   1.0000
     1.0000   1.0000   1.0000   1.0000   1.0000   1.0000   1.0000   1.0000
     1.0000   1.0000   1.0000   1.0000   1.0000   1.0000   1.0000   1.0000
     1.0000   1.0000   1.0000   1.0000   1.0000   1.0000   1.0000   1.0000
     1.0000   1.0000   1.0000   1.0000   1.0000   1.0000   1.0000   1.0000
     1.0000   1.0000   0.9978   0.0026   0.0003   0.0000   0.0000   0.0000
     0.0000   0.0000   0.0000   0.0000   0.0000   0.0000   0.0000   0.0000
     0.0000   0.0000   0.0000   0.0000   0.0000   0.0000   0.0000   0.0000
     0.0000   0.0000   0.0000   0.0000   0.0000   0.0000   0.0000   0.0000
     0.0000   0.0000   0.0000   0.0000   0.0000   0.0000   0.0000   0.0000
     0.0000   0.0000   0.0000   0.0000   0.0000   0.0000   0.0000   0.0000
     0.0000   0.0000   0.0000   0.0000   0.0000   0.0000   0.0000   0.0000

          k = 0.0000 0.4619-0.2004 (  5354 PWs)   bands (ev):

   -79.6553 -79.5003 -79.3572 -74.6750 -74.6675 -74.5301 -45.5020 -45.4489
   -45.4441 -45.3138 -45.3118 -45.3087 -45.2490 -45.1391 -45.1339 -40.6836
   -40.6694 -40.6281 -40.6215 -40.6133 -40.6093 -40.5373 -40.4872 -40.4825
   -11.2447 -11.2249 -11.2064 -11.1954 -11.1860 -11.1748 -11.1651 -11.1570
   -11.1531 -11.1424 -11.1277 -11.1206 -11.1170 -11.1112 -11.1085 -11.0995
   -11.0867 -11.0839 -11.0802 -11.0782 -11.0749 -11.0718 -11.0665 -11.0626
   -11.0598 -11.0497 -11.0475 -11.0390 -11.0361 -11.0262  -7.5081  -7.3412
    -7.1136  -6.9161  -6.8589  -6.5601  -6.5011  -6.4359  -6.3175  -6.2309
    -6.1533  -6.1425  -6.0551  -6.0380  -5.9032  -5.8830  -5.7604  -5.6853
     0.9852   1.1773   1.2007   1.5784   1.6686   1.8992   5.0600   5.3024
     5.3631   5.4783   5.5645   5.6667   5.7336   5.8595   5.9125   6.0044
     6.0643   6.1291   6.1891   6.2905   6.3491   6.4673   6.5431   6.6483
     6.7768   6.8291   6.9203   7.0721   7.1163   7.2368   7.3146   7.4233
     7.5041   7.5642   7.6407   7.7319   7.7549   7.8063   7.8806   7.9838
     8.0406   8.1075   8.1907   8.2804   8.3937   8.4384   8.4829   8.5225
     8.5958   8.7144   8.7520   8.8571   8.9112   8.9794   9.0659   9.1039
     9.1766   9.2282   9.2755   9.3441   9.3583   9.4863   9.5489   9.8961
    10.0175  10.1962  10.2650  10.4007  10.5075  10.6390  10.8940  10.9614
    10.9686  11.0930  11.4775  12.0400  12.0880  12.2061  12.2729  12.3374
    12.4086  12.4293  12.5822  12.7029  13.2544  13.3851  13.4919  13.7529
    13.8408  14.2789  14.7525  14.9368  15.0905  15.2462  15.4431  15.4980
    15.6789  15.8198  16.2044  16.4603  16.5588  16.5975  16.6865  16.9213
    17.1192  17.1657  17.2195  17.3397  19.7222  20.2389  20.4051  20.8274
    21.1631  21.3105  21.8020  21.8661  21.9648  22.0368  22.2824  22.3257
    22.4900  22.6282  22.7964  22.9166  23.0173  23.1830  23.3261  23.5635

     occupation numbers 
     1.0000   1.0000   1.0000   1.0000   1.0000   1.0000   1.0000   1.0000
     1.0000   1.0000   1.0000   1.0000   1.0000   1.0000   1.0000   1.0000
     1.0000   1.0000   1.0000   1.0000   1.0000   1.0000   1.0000   1.0000
     1.0000   1.0000   1.0000   1.0000   1.0000   1.0000   1.0000   1.0000
     1.0000   1.0000   1.0000   1.0000   1.0000   1.0000   1.0000   1.0000
     1.0000   1.0000   1.0000   1.0000   1.0000   1.0000   1.0000   1.0000
     1.0000   1.0000   1.0000   1.0000   1.0000   1.0000   1.0000   1.0000
     1.0000   1.0000   1.0000   1.0000   1.0000   1.0000   1.0000   1.0000
     1.0000   1.0000   1.0000   1.0000   1.0000   1.0000   1.0000   1.0000
     1.0000   1.0000   1.0000   1.0000   1.0000   1.0000   1.0000   1.0000
     1.0000   1.0000   1.0000   1.0000   1.0000   1.0000   1.0000   1.0000
     1.0000   1.0000   1.0000   1.0000   1.0000   1.0000   1.0000   1.0000
     1.0000   1.0000   1.0000   1.0000   1.0000   1.0000   1.0000   1.0000
     1.0000   1.0000   1.0000   1.0000   1.0000   1.0000   1.0000   1.0000
     1.0000   1.0000   1.0000   1.0000   1.0000   1.0000   1.0000   1.0000
     1.0000   1.0000   1.0000   1.0000   1.0000   1.0000   1.0000   1.0000
     1.0000   1.0000   1.0000   1.0000   1.0000   1.0000   1.0000   1.0000
     1.0000   1.0000   1.0000   1.0000   1.0000   1.0000   1.0000   1.0000
     1.0000   1.0000   0.9984   0.0019   0.0004   0.0000   0.0000   0.0000
     0.0000   0.0000   0.0000   0.0000   0.0000   0.0000   0.0000   0.0000
     0.0000   0.0000   0.0000   0.0000   0.0000   0.0000   0.0000   0.0000
     0.0000   0.0000   0.0000   0.0000   0.0000   0.0000   0.0000   0.0000
     0.0000   0.0000   0.0000   0.0000   0.0000   0.0000   0.0000   0.0000
     0.0000   0.0000   0.0000   0.0000   0.0000   0.0000   0.0000   0.0000
     0.0000   0.0000   0.0000   0.0000   0.0000   0.0000   0.0000   0.0000

          k = 0.2000 0.3464 0.0000 (  5344 PWs)   bands (ev):

   -79.6547 -79.4997 -79.3566 -74.6746 -74.6670 -74.5296 -45.4985 -45.4503
   -45.4384 -45.3152 -45.3084 -45.3037 -45.2456 -45.1403 -45.1287 -40.6819
   -40.6637 -40.6298 -40.6184 -40.6122 -40.6053 -40.5342 -40.4883 -40.4776
   -11.2353 -11.2281 -11.2221 -11.2031 -11.1798 -11.1763 -11.1663 -11.1564
   -11.1490 -11.1431 -11.1274 -11.1239 -11.1183 -11.1123 -11.1048 -11.0957
   -11.0874 -11.0828 -11.0793 -11.0774 -11.0734 -11.0698 -11.0672 -11.0625
   -11.0599 -11.0495 -11.0439 -11.0376 -11.0342 -11.0289  -7.6329  -7.3242
    -7.2193  -6.8417  -6.7868  -6.5664  -6.4151  -6.4056  -6.3327  -6.2524
    -6.1952  -6.1086  -6.0543  -5.9939  -5.9367  -5.8734  -5.7216  -5.6907
     0.9919   1.1461   1.1741   1.6313   1.7024   1.9846   5.1519   5.2244
     5.3257   5.3769   5.5583   5.6286   5.7501   5.8286   5.8626   5.9352
     6.0719   6.1072   6.1842   6.2570   6.3768   6.4682   6.5236   6.6196
     6.7542   6.7904   6.9563   7.0195   7.1111   7.2556   7.3294   7.3491
     7.4474   7.5381   7.5960   7.6588   7.7414   7.8189   7.9196   7.9958
     8.0929   8.1441   8.2329   8.2746   8.3317   8.4006   8.4671   8.5802
     8.6681   8.7245   8.7940   8.8593   8.9234   8.9766   9.0383   9.0606
     9.1875   9.2245   9.2961   9.3369   9.4188   9.4641   9.5835   9.8750
    10.0523  10.1366  10.3606  10.4386  10.6291  10.6620  10.7766  10.9108
    11.0123  11.2631  11.4664  12.0296  12.1189  12.1792  12.2658  12.3452
    12.3930  12.4836  12.5269  12.6870  13.2271  13.3681  13.5908  13.6921
    14.0794  14.2573  14.7522  14.7984  15.1814  15.3602  15.4100  15.6857
    15.7823  15.8444  16.2705  16.5884  16.6114  16.6791  16.7668  16.8139
    17.0742  17.1371  17.1789  17.4055  19.4279  20.2496  20.3768  20.6743
    21.1521  21.3020  21.4665  21.7666  21.8519  21.9254  22.3526  22.4175
    22.5166  22.6488  22.7984  22.8646  23.0985  23.1828  23.2944  23.3250

     occupation numbers 
     1.0000   1.0000   1.0000   1.0000   1.0000   1.0000   1.0000   1.0000
     1.0000   1.0000   1.0000   1.0000   1.0000   1.0000   1.0000   1.0000
     1.0000   1.0000   1.0000   1.0000   1.0000   1.0000   1.0000   1.0000
     1.0000   1.0000   1.0000   1.0000   1.0000   1.0000   1.0000   1.0000
     1.0000   1.0000   1.0000   1.0000   1.0000   1.0000   1.0000   1.0000
     1.0000   1.0000   1.0000   1.0000   1.0000   1.0000   1.0000   1.0000
     1.0000   1.0000   1.0000   1.0000   1.0000   1.0000   1.0000   1.0000
     1.0000   1.0000   1.0000   1.0000   1.0000   1.0000   1.0000   1.0000
     1.0000   1.0000   1.0000   1.0000   1.0000   1.0000   1.0000   1.0000
     1.0000   1.0000   1.0000   1.0000   1.0000   1.0000   1.0000   1.0000
     1.0000   1.0000   1.0000   1.0000   1.0000   1.0000   1.0000   1.0000
     1.0000   1.0000   1.0000   1.0000   1.0000   1.0000   1.0000   1.0000
     1.0000   1.0000   1.0000   1.0000   1.0000   1.0000   1.0000   1.0000
     1.0000   1.0000   1.0000   1.0000   1.0000   1.0000   1.0000   1.0000
     1.0000   1.0000   1.0000   1.0000   1.0000   1.0000   1.0000   1.0000
     1.0000   1.0000   1.0000   1.0000   1.0000   1.0000   1.0000   1.0000
     1.0000   1.0000   1.0000   1.0000   1.0000   1.0000   1.0000   1.0000
     1.0000   1.0000   1.0000   1.0000   1.0000   1.0000   1.0000   1.0000
     1.0000   1.0000   0.9989   0.0027   0.0001   0.0000   0.0000   0.0000
     0.0000   0.0000   0.0000   0.0000   0.0000   0.0000   0.0000   0.0000
     0.0000   0.0000   0.0000   0.0000   0.0000   0.0000   0.0000   0.0000
     0.0000   0.0000   0.0000   0.0000   0.0000   0.0000   0.0000   0.0000
     0.0000   0.0000   0.0000   0.0000   0.0000   0.0000   0.0000   0.0000
     0.0000   0.0000   0.0000   0.0000   0.0000   0.0000   0.0000   0.0000
     0.0000   0.0000   0.0000   0.0000   0.0000   0.0000   0.0000   0.0000

          k = 0.2000 0.3464 0.1002 (  5341 PWs)   bands (ev):

   -79.6546 -79.4996 -79.3565 -74.6744 -74.6669 -74.5295 -45.4946 -45.4491
   -45.4421 -45.3139 -45.3069 -45.3050 -45.2420 -45.1391 -45.1320 -40.6762
   -40.6630 -40.6282 -40.6218 -40.6120 -40.6073 -40.5309 -40.4872 -40.4806
   -11.2362 -11.2300 -11.2173 -11.2028 -11.1846 -11.1741 -11.1659 -11.1595
   -11.1481 -11.1393 -11.1299 -11.1208 -11.1182 -11.1135 -11.1041 -11.0967
   -11.0866 -11.0826 -11.0805 -11.0772 -11.0724 -11.0710 -11.0664 -11.0628
   -11.0601 -11.0494 -11.0440 -11.0383 -11.0337 -11.0287  -7.6219  -7.3914
    -7.1274  -6.8908  -6.7692  -6.5833  -6.4386  -6.3927  -6.3264  -6.2357
    -6.1605  -6.1291  -6.0670  -6.0006  -5.9297  -5.8741  -5.7228  -5.6907
     0.9950   1.0909   1.2616   1.5234   1.7924   1.9669   5.1439   5.2193
     5.3446   5.4015   5.5786   5.6019   5.7292   5.8176   5.8640   5.9587
     6.0590   6.1450   6.1797   6.2471   6.3117   6.4157   6.5442   6.6425
     6.7239   6.8821   6.9398   7.0027   7.1392   7.2365   7.2947   7.3375
     7.4895   7.5368   7.6060   7.6698   7.7843   7.8290   7.9277   8.0078
     8.0603   8.1300   8.2242   8.2831   8.3254   8.4077   8.4596   8.5858
     8.6753   8.6997   8.7919   8.8612   8.8874   8.9515   9.0486   9.0844
     9.1468   9.2485   9.2857   9.3853   9.4119   9.4804   9.5713   9.9017
    10.0737  10.1135  10.3636  10.4765  10.5743  10.6471  10.7905  10.9175
    11.0202  11.2708  11.4631  12.0334  12.1219  12.1761  12.2688  12.3480
    12.3948  12.4855  12.5230  12.6893  13.2297  13.3643  13.5920  13.6883
    14.0759  14.2624  14.7640  14.8793  15.1332  15.1767  15.4708  15.6459
    15.8707  15.9773  16.2544  16.3693  16.6748  16.7622  16.8099  16.8632
    17.0385  17.0846  17.2168  17.3508  19.4553  20.1645  20.3900  20.7337
    21.1211  21.3311  21.5067  21.7029  21.8109  22.1285  22.1636  22.4932
    22.5895  22.6257  22.8006  22.8800  22.9913  23.1680  23.2977  23.3885

     occupation numbers 
     1.0000   1.0000   1.0000   1.0000   1.0000   1.0000   1.0000   1.0000
     1.0000   1.0000   1.0000   1.0000   1.0000   1.0000   1.0000   1.0000
     1.0000   1.0000   1.0000   1.0000   1.0000   1.0000   1.0000   1.0000
     1.0000   1.0000   1.0000   1.0000   1.0000   1.0000   1.0000   1.0000
     1.0000   1.0000   1.0000   1.0000   1.0000   1.0000   1.0000   1.0000
     1.0000   1.0000   1.0000   1.0000   1.0000   1.0000   1.0000   1.0000
     1.0000   1.0000   1.0000   1.0000   1.0000   1.0000   1.0000   1.0000
     1.0000   1.0000   1.0000   1.0000   1.0000   1.0000   1.0000   1.0000
     1.0000   1.0000   1.0000   1.0000   1.0000   1.0000   1.0000   1.0000
     1.0000   1.0000   1.0000   1.0000   1.0000   1.0000   1.0000   1.0000
     1.0000   1.0000   1.0000   1.0000   1.0000   1.0000   1.0000   1.0000
     1.0000   1.0000   1.0000   1.0000   1.0000   1.0000   1.0000   1.0000
     1.0000   1.0000   1.0000   1.0000   1.0000   1.0000   1.0000   1.0000
     1.0000   1.0000   1.0000   1.0000   1.0000   1.0000   1.0000   1.0000
     1.0000   1.0000   1.0000   1.0000   1.0000   1.0000   1.0000   1.0000
     1.0000   1.0000   1.0000   1.0000   1.0000   1.0000   1.0000   1.0000
     1.0000   1.0000   1.0000   1.0000   1.0000   1.0000   1.0000   1.0000
     1.0000   1.0000   1.0000   1.0000   1.0000   1.0000   1.0000   1.0000
     1.0000   1.0000   0.9991   0.0024   0.0001   0.0000   0.0000   0.0000
     0.0000   0.0000   0.0000   0.0000   0.0000   0.0000   0.0000   0.0000
     0.0000   0.0000   0.0000   0.0000   0.0000   0.0000   0.0000   0.0000
     0.0000   0.0000   0.0000   0.0000   0.0000   0.0000   0.0000   0.0000
     0.0000   0.0000   0.0000   0.0000   0.0000   0.0000   0.0000   0.0000
     0.0000   0.0000   0.0000   0.0000   0.0000   0.0000   0.0000   0.0000
     0.0000   0.0000   0.0000   0.0000   0.0000   0.0000   0.0000   0.0000

          k = 0.2000 0.3464-0.2004 (  5336 PWs)   bands (ev):

   -79.6544 -79.4994 -79.3563 -74.6742 -74.6668 -74.5293 -45.4952 -45.4491
   -45.4390 -45.3139 -45.3054 -45.3032 -45.2422 -45.1390 -45.1286 -40.6763
   -40.6642 -40.6283 -40.6208 -40.6102 -40.6036 -40.5311 -40.4871 -40.4773
   -11.2371 -11.2310 -11.2102 -11.2066 -11.1826 -11.1776 -11.1685 -11.1597
   -11.1447 -11.1401 -11.1275 -11.1221 -11.1173 -11.1132 -11.1050 -11.0964
   -11.0858 -11.0827 -11.0806 -11.0785 -11.0716 -11.0710 -11.0664 -11.0633
   -11.0597 -11.0495 -11.0438 -11.0390 -11.0330 -11.0285  -7.6080  -7.4359
    -7.0096  -6.9855  -6.7541  -6.6076  -6.4334  -6.4066  -6.3146  -6.2015
    -6.1590  -6.1333  -6.0848  -6.0026  -5.9222  -5.8790  -5.7227  -5.6912
     1.0000   1.0637   1.3766   1.3959   1.8561   1.9369   5.1366   5.2177
     5.3671   5.4212   5.5746   5.6156   5.7364   5.7801   5.9026   5.9452
     6.0127   6.1256   6.1772   6.2369   6.3331   6.4236   6.5341   6.6758
     6.6984   6.8692   6.9488   7.0257   7.1434   7.2072   7.3203   7.3697
     7.4650   7.5652   7.5824   7.7092   7.8002   7.8884   7.9348   7.9719
     8.0308   8.1206   8.1849   8.2980   8.3531   8.4062   8.4752   8.5648
     8.6834   8.7030   8.7353   8.7864   8.9301   8.9819   9.0317   9.1193
     9.1717   9.2511   9.2842   9.3762   9.4089   9.4774   9.5706   9.8988
    10.0353  10.2163  10.3172  10.4666  10.5580  10.6604  10.7887  10.9246
    11.0275  11.2779  11.4516  12.0383  12.1242  12.1776  12.2683  12.3479
    12.3994  12.4791  12.5357  12.6865  13.2293  13.3625  13.5882  13.6929
    14.0738  14.2650  14.8690  14.9128  15.0384  15.0579  15.5047  15.5901
    16.0731  16.0879  16.1712  16.1872  16.7533  16.7698  16.8859  16.9302
    16.9707  16.9996  17.2454  17.2987  19.4963  20.0508  20.4259  20.7794
    21.1389  21.3295  21.5321  21.6440  21.8367  22.0518  22.4013  22.4087
    22.5489  22.6643  22.7478  22.8302  23.0306  23.1243  23.3370  23.4501

     occupation numbers 
     1.0000   1.0000   1.0000   1.0000   1.0000   1.0000   1.0000   1.0000
     1.0000   1.0000   1.0000   1.0000   1.0000   1.0000   1.0000   1.0000
     1.0000   1.0000   1.0000   1.0000   1.0000   1.0000   1.0000   1.0000
     1.0000   1.0000   1.0000   1.0000   1.0000   1.0000   1.0000   1.0000
     1.0000   1.0000   1.0000   1.0000   1.0000   1.0000   1.0000   1.0000
     1.0000   1.0000   1.0000   1.0000   1.0000   1.0000   1.0000   1.0000
     1.0000   1.0000   1.0000   1.0000   1.0000   1.0000   1.0000   1.0000
     1.0000   1.0000   1.0000   1.0000   1.0000   1.0000   1.0000   1.0000
     1.0000   1.0000   1.0000   1.0000   1.0000   1.0000   1.0000   1.0000
     1.0000   1.0000   1.0000   1.0000   1.0000   1.0000   1.0000   1.0000
     1.0000   1.0000   1.0000   1.0000   1.0000   1.0000   1.0000   1.0000
     1.0000   1.0000   1.0000   1.0000   1.0000   1.0000   1.0000   1.0000
     1.0000   1.0000   1.0000   1.0000   1.0000   1.0000   1.0000   1.0000
     1.0000   1.0000   1.0000   1.0000   1.0000   1.0000   1.0000   1.0000
     1.0000   1.0000   1.0000   1.0000   1.0000   1.0000   1.0000   1.0000
     1.0000   1.0000   1.0000   1.0000   1.0000   1.0000   1.0000   1.0000
     1.0000   1.0000   1.0000   1.0000   1.0000   1.0000   1.0000   1.0000
     1.0000   1.0000   1.0000   1.0000   1.0000   1.0000   1.0000   1.0000
     1.0000   1.0000   0.9994   0.0020   0.0001   0.0000   0.0000   0.0000
     0.0000   0.0000   0.0000   0.0000   0.0000   0.0000   0.0000   0.0000
     0.0000   0.0000   0.0000   0.0000   0.0000   0.0000   0.0000   0.0000
     0.0000   0.0000   0.0000   0.0000   0.0000   0.0000   0.0000   0.0000
     0.0000   0.0000   0.0000   0.0000   0.0000   0.0000   0.0000   0.0000
     0.0000   0.0000   0.0000   0.0000   0.0000   0.0000   0.0000   0.0000
     0.0000   0.0000   0.0000   0.0000   0.0000   0.0000   0.0000   0.0000

          k = 0.2000 0.5774 0.0000 (  5332 PWs)   bands (ev):

   -79.6545 -79.4994 -79.3564 -74.6744 -74.6668 -74.5294 -45.4929 -45.4501
   -45.4410 -45.3138 -45.3061 -45.3029 -45.2402 -45.1392 -45.1313 -40.6754
   -40.6608 -40.6320 -40.6181 -40.6105 -40.6078 -40.5291 -40.4871 -40.4801
   -11.2334 -11.2137 -11.2073 -11.1979 -11.1954 -11.1852 -11.1634 -11.1545
   -11.1383 -11.1346 -11.1323 -11.1218 -11.1165 -11.1093 -11.1055 -11.0968
   -11.0915 -11.0838 -11.0813 -11.0761 -11.0736 -11.0712 -11.0700 -11.0645
   -11.0600 -11.0487 -11.0481 -11.0415 -11.0388 -11.0311  -7.2761  -7.2382
    -7.0786  -6.9855  -6.9028  -6.7439  -6.5057  -6.4040  -6.3909  -6.2494
    -6.1693  -6.1398  -6.0847  -6.0531  -5.9826  -5.8180  -5.7679  -5.7041
     1.1273   1.2851   1.3080   1.4576   1.4944   1.6447   5.1448   5.2740
     5.3596   5.4798   5.6570   5.7207   5.8066   5.8587   5.9861   6.0262
     6.1033   6.1845   6.3039   6.3240   6.4790   6.6021   6.6820   6.7712
     6.8360   6.9078   6.9562   7.0535   7.1224   7.1522   7.2548   7.3848
     7.5138   7.5558   7.5890   7.6925   7.7342   7.8388   7.8794   7.9648
     8.0388   8.0963   8.1539   8.2586   8.3673   8.4150   8.5001   8.5264
     8.5932   8.6670   8.7368   8.8069   8.8716   8.9498   9.0510   9.1179
     9.2065   9.2788   9.3410   9.3702   9.4313   9.5200   9.5672   9.9230
    10.1509  10.1639  10.2411  10.4112  10.4912  10.5983  10.8289  10.8806
    10.9373  11.1221  11.3725  12.0745  12.1308  12.1795  12.2765  12.3650
    12.4358  12.5021  12.6158  12.6682  13.2534  13.3420  13.5209  13.7879
    13.8646  14.1832  14.6176  14.9131  14.9159  15.1789  15.2268  15.3081
    15.7651  15.8666  15.9328  16.3946  16.4275  16.6226  16.7828  16.8963
    16.9410  16.9848  17.1633  17.2258  20.2107  20.3568  20.5893  21.1572
    21.2608  21.3744  21.7691  21.8417  21.8771  22.0980  22.1859  22.5548
    22.6181  22.8484  22.8898  22.9187  22.9999  23.0714  23.1690  23.2633

     occupation numbers 
     1.0000   1.0000   1.0000   1.0000   1.0000   1.0000   1.0000   1.0000
     1.0000   1.0000   1.0000   1.0000   1.0000   1.0000   1.0000   1.0000
     1.0000   1.0000   1.0000   1.0000   1.0000   1.0000   1.0000   1.0000
     1.0000   1.0000   1.0000   1.0000   1.0000   1.0000   1.0000   1.0000
     1.0000   1.0000   1.0000   1.0000   1.0000   1.0000   1.0000   1.0000
     1.0000   1.0000   1.0000   1.0000   1.0000   1.0000   1.0000   1.0000
     1.0000   1.0000   1.0000   1.0000   1.0000   1.0000   1.0000   1.0000
     1.0000   1.0000   1.0000   1.0000   1.0000   1.0000   1.0000   1.0000
     1.0000   1.0000   1.0000   1.0000   1.0000   1.0000   1.0000   1.0000
     1.0000   1.0000   1.0000   1.0000   1.0000   1.0000   1.0000   1.0000
     1.0000   1.0000   1.0000   1.0000   1.0000   1.0000   1.0000   1.0000
     1.0000   1.0000   1.0000   1.0000   1.0000   1.0000   1.0000   1.0000
     1.0000   1.0000   1.0000   1.0000   1.0000   1.0000   1.0000   1.0000
     1.0000   1.0000   1.0000   1.0000   1.0000   1.0000   1.0000   1.0000
     1.0000   1.0000   1.0000   1.0000   1.0000   1.0000   1.0000   1.0000
     1.0000   1.0000   1.0000   1.0000   1.0000   1.0000   1.0000   1.0000
     1.0000   1.0000   1.0000   1.0000   1.0000   1.0000   1.0000   1.0000
     1.0000   1.0000   1.0000   1.0000   1.0000   1.0000   1.0000   1.0000
     1.0000   1.0000   1.0000   0.0006   0.0001   0.0000   0.0000   0.0000
     0.0000   0.0000   0.0000   0.0000   0.0000   0.0000   0.0000   0.0000
     0.0000   0.0000   0.0000   0.0000   0.0000   0.0000   0.0000   0.0000
     0.0000   0.0000   0.0000   0.0000   0.0000   0.0000   0.0000   0.0000
     0.0000   0.0000   0.0000   0.0000   0.0000   0.0000   0.0000   0.0000
     0.0000   0.0000   0.0000   0.0000   0.0000   0.0000   0.0000   0.0000
     0.0000   0.0000   0.0000   0.0000   0.0000   0.0000   0.0000   0.0000

          k = 0.2000 0.5774 0.1002 (  5341 PWs)   bands (ev):

   -79.6549 -79.4998 -79.3568 -74.6746 -74.6671 -74.5297 -45.4951 -45.4486
   -45.4448 -45.3129 -45.3099 -45.3053 -45.2422 -45.1382 -45.1351 -40.6764
   -40.6640 -40.6293 -40.6216 -40.6117 -40.6104 -40.5311 -40.4863 -40.4835
   -11.2323 -11.2172 -11.2073 -11.1967 -11.1955 -11.1856 -11.1605 -11.1524
   -11.1415 -11.1380 -11.1329 -11.1217 -11.1159 -11.1090 -11.1047 -11.0967
   -11.0909 -11.0847 -11.0810 -11.0764 -11.0729 -11.0718 -11.0706 -11.0646
   -11.0599 -11.0488 -11.0484 -11.0414 -11.0387 -11.0313  -7.2751  -7.2309
    -7.0922  -6.9963  -6.8953  -6.7309  -6.4849  -6.4294  -6.3658  -6.2773
    -6.2120  -6.1170  -6.0829  -6.0394  -5.9669  -5.8211  -5.7715  -5.7056
     1.1373   1.2485   1.3418   1.4297   1.5221   1.6349   5.1434   5.2715
     5.3538   5.4791   5.6726   5.7146   5.8181   5.8749   5.9689   6.0025
     6.1324   6.2158   6.2860   6.3575   6.4219   6.5847   6.6409   6.7644
     6.8170   6.8910   6.9157   6.9723   7.1169   7.1923   7.3416   7.4226
     7.5363   7.5664   7.6347   7.6929   7.7283   7.7979   7.8912   7.9626
     8.0258   8.1428   8.1649   8.2487   8.3292   8.3645   8.5018   8.5331
     8.6137   8.6281   8.7376   8.7872   8.8966   8.9829   9.0471   9.1176
     9.2258   9.2860   9.3007   9.3583   9.4225   9.5219   9.5705   9.8917
    10.1000  10.1909  10.2589  10.3948  10.5282  10.6165  10.8124  10.8817
    10.9235  11.1248  11.3771  12.0667  12.1227  12.1784  12.2763  12.3685
    12.4290  12.4946  12.6182  12.6668  13.2500  13.3459  13.5193  13.7914
    13.8620  14.1889  14.6521  14.9156  14.9522  15.0809  15.1482  15.2296
    15.8686  15.9709  16.0372  16.3703  16.4208  16.5572  16.7694  16.8226
    16.9354  17.0505  17.1298  17.2055  20.2093  20.3665  20.5859  21.1774
    21.2633  21.3418  21.8039  21.8753  21.9037  22.0755  22.3241  22.4528
    22.6369  22.7878  22.8159  22.8883  23.0191  23.0509  23.1719  23.2419

     occupation numbers 
     1.0000   1.0000   1.0000   1.0000   1.0000   1.0000   1.0000   1.0000
     1.0000   1.0000   1.0000   1.0000   1.0000   1.0000   1.0000   1.0000
     1.0000   1.0000   1.0000   1.0000   1.0000   1.0000   1.0000   1.0000
     1.0000   1.0000   1.0000   1.0000   1.0000   1.0000   1.0000   1.0000
     1.0000   1.0000   1.0000   1.0000   1.0000   1.0000   1.0000   1.0000
     1.0000   1.0000   1.0000   1.0000   1.0000   1.0000   1.0000   1.0000
     1.0000   1.0000   1.0000   1.0000   1.0000   1.0000   1.0000   1.0000
     1.0000   1.0000   1.0000   1.0000   1.0000   1.0000   1.0000   1.0000
     1.0000   1.0000   1.0000   1.0000   1.0000   1.0000   1.0000   1.0000
     1.0000   1.0000   1.0000   1.0000   1.0000   1.0000   1.0000   1.0000
     1.0000   1.0000   1.0000   1.0000   1.0000   1.0000   1.0000   1.0000
     1.0000   1.0000   1.0000   1.0000   1.0000   1.0000   1.0000   1.0000
     1.0000   1.0000   1.0000   1.0000   1.0000   1.0000   1.0000   1.0000
     1.0000   1.0000   1.0000   1.0000   1.0000   1.0000   1.0000   1.0000
     1.0000   1.0000   1.0000   1.0000   1.0000   1.0000   1.0000   1.0000
     1.0000   1.0000   1.0000   1.0000   1.0000   1.0000   1.0000   1.0000
     1.0000   1.0000   1.0000   1.0000   1.0000   1.0000   1.0000   1.0000
     1.0000   1.0000   1.0000   1.0000   1.0000   1.0000   1.0000   1.0000
     1.0000   1.0000   1.0000   0.0008   0.0001   0.0000   0.0000   0.0000
     0.0000   0.0000   0.0000   0.0000   0.0000   0.0000   0.0000   0.0000
     0.0000   0.0000   0.0000   0.0000   0.0000   0.0000   0.0000   0.0000
     0.0000   0.0000   0.0000   0.0000   0.0000   0.0000   0.0000   0.0000
     0.0000   0.0000   0.0000   0.0000   0.0000   0.0000   0.0000   0.0000
     0.0000   0.0000   0.0000   0.0000   0.0000   0.0000   0.0000   0.0000
     0.0000   0.0000   0.0000   0.0000   0.0000   0.0000   0.0000   0.0000

          k = 0.2000 0.5774-0.2004 (  5354 PWs)   bands (ev):

   -79.6554 -79.5003 -79.3573 -74.6750 -74.6676 -74.5302 -45.4996 -45.4479
   -45.4474 -45.3133 -45.3126 -45.3099 -45.2466 -45.1381 -45.1375 -40.6804
   -40.6682 -40.6271 -40.6241 -40.6137 -40.6127 -40.5352 -40.4863 -40.4858
   -11.2310 -11.2206 -11.2064 -11.1966 -11.1959 -11.1853 -11.1541 -11.1517
   -11.1457 -11.1429 -11.1323 -11.1227 -11.1154 -11.1084 -11.1043 -11.0960
   -11.0911 -11.0857 -11.0802 -11.0759 -11.0739 -11.0731 -11.0696 -11.0654
   -11.0599 -11.0491 -11.0482 -11.0411 -11.0389 -11.0320  -7.2739  -7.2231
    -7.1037  -7.0115  -6.8840  -6.7205  -6.4629  -6.4294  -6.3704  -6.3090
    -6.2115  -6.1464  -6.0659  -6.0234  -5.9517  -5.8250  -5.7755  -5.7074
     1.1509   1.2212   1.3772   1.3959   1.5448   1.6218   5.1402   5.2719
     5.3550   5.4781   5.6658   5.7363   5.8085   5.9010   5.9799   5.9842
     6.1332   6.2361   6.2889   6.3288   6.4279   6.5158   6.6580   6.7074
     6.7969   6.8661   6.9406   6.9946   7.0696   7.1925   7.4154   7.4304
     7.5163   7.5775   7.6519   7.6865   7.7441   7.7813   7.9052   7.9736
     8.0392   8.1292   8.1880   8.2253   8.3042   8.3948   8.4765   8.5214
     8.5736   8.6227   8.7546   8.7856   8.9203   8.9426   9.0447   9.1208
     9.1952   9.2573   9.3211   9.3565   9.4406   9.5198   9.5742   9.8843
    10.0726  10.1955  10.2967  10.3654  10.5134  10.6426  10.8074  10.8821
    10.9176  11.1175  11.3863  12.0665  12.1136  12.1756  12.2745  12.3615
    12.4280  12.4890  12.6206  12.6652  13.2466  13.3466  13.5290  13.7795
    13.8636  14.1825  14.7156  14.8895  14.9825  15.0025  15.0908  15.1469
    15.9885  16.0544  16.2275  16.2510  16.4289  16.4634  16.7345  16.7676
    16.9932  17.0209  17.1390  17.1729  20.2207  20.3553  20.5852  21.1812
    21.2671  21.3490  21.8527  21.8888  21.9995  22.0253  22.3374  22.4838
    22.6828  22.7372  22.7799  22.8489  22.8764  22.9330  23.2505  23.3302

     occupation numbers 
     1.0000   1.0000   1.0000   1.0000   1.0000   1.0000   1.0000   1.0000
     1.0000   1.0000   1.0000   1.0000   1.0000   1.0000   1.0000   1.0000
     1.0000   1.0000   1.0000   1.0000   1.0000   1.0000   1.0000   1.0000
     1.0000   1.0000   1.0000   1.0000   1.0000   1.0000   1.0000   1.0000
     1.0000   1.0000   1.0000   1.0000   1.0000   1.0000   1.0000   1.0000
     1.0000   1.0000   1.0000   1.0000   1.0000   1.0000   1.0000   1.0000
     1.0000   1.0000   1.0000   1.0000   1.0000   1.0000   1.0000   1.0000
     1.0000   1.0000   1.0000   1.0000   1.0000   1.0000   1.0000   1.0000
     1.0000   1.0000   1.0000   1.0000   1.0000   1.0000   1.0000   1.0000
     1.0000   1.0000   1.0000   1.0000   1.0000   1.0000   1.0000   1.0000
     1.0000   1.0000   1.0000   1.0000   1.0000   1.0000   1.0000   1.0000
     1.0000   1.0000   1.0000   1.0000   1.0000   1.0000   1.0000   1.0000
     1.0000   1.0000   1.0000   1.0000   1.0000   1.0000   1.0000   1.0000
     1.0000   1.0000   1.0000   1.0000   1.0000   1.0000   1.0000   1.0000
     1.0000   1.0000   1.0000   1.0000   1.0000   1.0000   1.0000   1.0000
     1.0000   1.0000   1.0000   1.0000   1.0000   1.0000   1.0000   1.0000
     1.0000   1.0000   1.0000   1.0000   1.0000   1.0000   1.0000   1.0000
     1.0000   1.0000   1.0000   1.0000   1.0000   1.0000   1.0000   1.0000
     1.0000   1.0000   1.0000   0.0008   0.0001   0.0000   0.0000   0.0000
     0.0000   0.0000   0.0000   0.0000   0.0000   0.0000   0.0000   0.0000
     0.0000   0.0000   0.0000   0.0000   0.0000   0.0000   0.0000   0.0000
     0.0000   0.0000   0.0000   0.0000   0.0000   0.0000   0.0000   0.0000
     0.0000   0.0000   0.0000   0.0000   0.0000   0.0000   0.0000   0.0000
     0.0000   0.0000   0.0000   0.0000   0.0000   0.0000   0.0000   0.0000
     0.0000   0.0000   0.0000   0.0000   0.0000   0.0000   0.0000   0.0000

          k =-0.2000 0.1155 0.1002 (  5363 PWs)   bands (ev):

   -79.6553 -79.5003 -79.3572 -74.6751 -74.6674 -74.5301 -45.4959 -45.4512
[...]
     1.0000   1.0000   1.0000   0.0007   0.0001   0.0000   0.0000   0.0000
     0.0000   0.0000   0.0000   0.0000   0.0000   0.0000   0.0000   0.0000
     0.0000   0.0000   0.0000   0.0000   0.0000   0.0000   0.0000   0.0000
     0.0000   0.0000   0.0000   0.0000   0.0000   0.0000   0.0000   0.0000
     0.0000   0.0000   0.0000   0.0000   0.0000   0.0000   0.0000   0.0000
     0.0000   0.0000   0.0000   0.0000   0.0000   0.0000   0.0000   0.0000
     0.0000   0.0000   0.0000   0.0000   0.0000   0.0000   0.0000   0.0000

          k =-0.2000 0.1155 0.1002 (  5363 PWs)   bands (ev):

   -79.6584 -79.5060 -79.3635 -74.6724 -74.6623 -74.5252 -45.4988 -45.4542
   -45.4517 -45.3214 -45.3193 -45.3113 -45.2486 -45.1474 -45.1450 -40.6763
   -40.6565 -40.6276 -40.6251 -40.6105 -40.6080 -40.5273 -40.4844 -40.4821
   -11.2455 -11.2384 -11.2298 -11.2096 -11.1856 -11.1760 -11.1656 -11.1566
   -11.1502 -11.1432 -11.1309 -11.1285 -11.1198 -11.1166 -11.1054 -11.0927
   -11.0833 -11.0812 -11.0788 -11.0758 -11.0707 -11.0688 -11.0637 -11.0615
   -11.0589 -11.0486 -11.0401 -11.0356 -11.0271 -11.0234  -7.8522  -7.6009
    -7.2742  -6.9150  -6.5811  -6.4430  -6.3826  -6.3103  -6.2310  -6.1869
    -6.1248  -6.1011  -6.0244  -6.0047  -5.8776  -5.8607  -5.6907  -5.6702
     0.8840   0.9826   1.2859   1.5869   2.0987   2.3740   5.0970   5.1310
     5.1569   5.3674   5.4874   5.5413   5.6287   5.6705   5.7787   5.8256
     5.8587   5.9973   6.0636   6.1508   6.1750   6.3199   6.3854   6.4417
     6.5898   6.6835   6.8213   6.8741   6.9212   7.1465   7.2050   7.2807
     7.3860   7.5409   7.6246   7.7592   7.7921   7.9067   7.9164   7.9440
     8.1319   8.1584   8.2689   8.2931   8.4201   8.4902   8.5257   8.5765
     8.6837   8.7550   8.8012   8.8731   8.9533   9.0435   9.0933   9.1688
     9.2237   9.2626   9.3019   9.3811   9.4521   9.5262   9.5984  10.0121
    10.1087  10.1580  10.3790  10.4541  10.5167  10.7217  10.7719  10.9060
    11.0825  11.4099  11.5077  12.0253  12.0807  12.1829  12.2827  12.3403
    12.3870  12.4265  12.4766  12.5906  13.2272  13.2765  13.6961  13.8238
    14.1970  14.3653  14.9184  14.9787  15.2252  15.6729  15.7230  15.9115
    16.1710  16.2525  16.4226  16.7354  16.7674  16.8889  16.9083  16.9690
    17.1166  17.2720  17.3905  17.4375  18.8036  19.6689  20.0122  20.4832
    20.8360  21.0537  21.1894  21.3012  21.5595  21.7401  22.0523  22.3216
    22.4188  22.6496  22.7603  22.8683  22.9431  23.0936  23.2560  23.3443

     occupation numbers 
     1.0000   1.0000   1.0000   1.0000   1.0000   1.0000   1.0000   1.0000
     1.0000   1.0000   1.0000   1.0000   1.0000   1.0000   1.0000   1.0000
     1.0000   1.0000   1.0000   1.0000   1.0000   1.0000   1.0000   1.0000
     1.0000   1.0000   1.0000   1.0000   1.0000   1.0000   1.0000   1.0000
     1.0000   1.0000   1.0000   1.0000   1.0000   1.0000   1.0000   1.0000
     1.0000   1.0000   1.0000   1.0000   1.0000   1.0000   1.0000   1.0000
     1.0000   1.0000   1.0000   1.0000   1.0000   1.0000   1.0000   1.0000
     1.0000   1.0000   1.0000   1.0000   1.0000   1.0000   1.0000   1.0000
     1.0000   1.0000   1.0000   1.0000   1.0000   1.0000   1.0000   1.0000
     1.0000   1.0000   1.0000   1.0000   1.0000   1.0000   1.0000   1.0000
     1.0000   1.0000   1.0000   1.0000   1.0000   1.0000   1.0000   1.0000
     1.0000   1.0000   1.0000   1.0000   1.0000   1.0000   1.0000   1.0000
     1.0000   1.0000   1.0000   1.0000   1.0000   1.0000   1.0000   1.0000
     1.0000   1.0000   1.0000   1.0000   1.0000   1.0000   1.0000   1.0000
     1.0000   1.0000   1.0000   1.0000   1.0000   1.0000   1.0000   1.0000
     1.0000   1.0000   1.0000   1.0000   1.0000   1.0000   1.0000   1.0000
     1.0000   1.0000   1.0000   1.0000   1.0000   1.0000   1.0000   1.0000
     1.0000   1.0000   1.0000   1.0000   1.0000   1.0000   1.0000   1.0000
     1.0000   0.9999   0.9959   0.0031   0.0005   0.0000   0.0000   0.0000
     0.0000   0.0000   0.0000   0.0000   0.0000   0.0000   0.0000   0.0000
     0.0000   0.0000   0.0000   0.0000   0.0000   0.0000   0.0000   0.0000
     0.0000   0.0000   0.0000   0.0000   0.0000   0.0000   0.0000   0.0000
     0.0000   0.0000   0.0000   0.0000   0.0000   0.0000   0.0000   0.0000
     0.0000   0.0000   0.0000   0.0000   0.0000   0.0000   0.0000   0.0000
     0.0000   0.0000   0.0000   0.0000   0.0000   0.0000   0.0000   0.0000

          k =-0.4000 0.2309 0.1002 (  5344 PWs)   bands (ev):

   -79.6580 -79.5056 -79.3631 -74.6720 -74.6620 -74.5249 -45.5029 -45.4507
   -45.4442 -45.3184 -45.3163 -45.3115 -45.2528 -45.1441 -45.1376 -40.6782
   -40.6631 -40.6238 -40.6163 -40.6083 -40.6026 -40.5312 -40.4813 -40.4753
   -11.2470 -11.2159 -11.2068 -11.1972 -11.1950 -11.1769 -11.1667 -11.1517
   -11.1470 -11.1404 -11.1297 -11.1236 -11.1168 -11.1103 -11.1085 -11.0979
   -11.0892 -11.0858 -11.0795 -11.0758 -11.0739 -11.0719 -11.0679 -11.0626
   -11.0597 -11.0490 -11.0480 -11.0389 -11.0363 -11.0234  -7.5184  -7.3247
    -7.0767  -7.0053  -6.8402  -6.5236  -6.4890  -6.4243  -6.3182  -6.2688
    -6.1724  -6.1586  -6.0364  -6.0235  -5.9036  -5.8836  -5.7594  -5.6828
     0.9812   1.1290   1.2991   1.4735   1.7451   1.8826   5.0588   5.3088
     5.3586   5.4745   5.5646   5.6636   5.7342   5.8329   5.9698   6.0136
     6.0534   6.0983   6.1694   6.2500   6.3205   6.4706   6.5667   6.6553
     6.7664   6.9380   7.0283   7.0610   7.1015   7.2460   7.3470   7.4110
     7.4580   7.4811   7.6008   7.7038   7.7572   7.8063   7.9345   7.9717
     8.0506   8.1334   8.1964   8.2610   8.3628   8.4273   8.4672   8.5105
     8.6334   8.6485   8.7369   8.8347   8.9444   9.0032   9.1031   9.1377
     9.1586   9.2259   9.2776   9.3606   9.4288   9.5003   9.5698   9.8681
    10.0190  10.1734  10.2511  10.4183  10.4978  10.6122  10.8675  10.9525
    10.9967  11.1178  11.4745  12.0420  12.0909  12.2121  12.2752  12.3453
    12.4140  12.4323  12.5898  12.7147  13.2673  13.3947  13.4926  13.7549
    13.8453  14.3067  14.6812  15.0531  15.1064  15.3325  15.3862  15.4570
    15.6517  15.7125  16.1553  16.5383  16.5875  16.6417  16.7041  16.8861
    17.1230  17.1752  17.2280  17.3252  19.6863  20.2982  20.4178  20.8520
    21.1226  21.2401  21.7667  21.8624  21.9600  22.0979  22.1725  22.4304
    22.4939  22.5838  22.8184  22.9284  23.0517  23.0898  23.3423  23.5495

     occupation numbers 
     1.0000   1.0000   1.0000   1.0000   1.0000   1.0000   1.0000   1.0000
     1.0000   1.0000   1.0000   1.0000   1.0000   1.0000   1.0000   1.0000
     1.0000   1.0000   1.0000   1.0000   1.0000   1.0000   1.0000   1.0000
     1.0000   1.0000   1.0000   1.0000   1.0000   1.0000   1.0000   1.0000
     1.0000   1.0000   1.0000   1.0000   1.0000   1.0000   1.0000   1.0000
     1.0000   1.0000   1.0000   1.0000   1.0000   1.0000   1.0000   1.0000
     1.0000   1.0000   1.0000   1.0000   1.0000   1.0000   1.0000   1.0000
     1.0000   1.0000   1.0000   1.0000   1.0000   1.0000   1.0000   1.0000
     1.0000   1.0000   1.0000   1.0000   1.0000   1.0000   1.0000   1.0000
     1.0000   1.0000   1.0000   1.0000   1.0000   1.0000   1.0000   1.0000
     1.0000   1.0000   1.0000   1.0000   1.0000   1.0000   1.0000   1.0000
     1.0000   1.0000   1.0000   1.0000   1.0000   1.0000   1.0000   1.0000
     1.0000   1.0000   1.0000   1.0000   1.0000   1.0000   1.0000   1.0000
     1.0000   1.0000   1.0000   1.0000   1.0000   1.0000   1.0000   1.0000
     1.0000   1.0000   1.0000   1.0000   1.0000   1.0000   1.0000   1.0000
     1.0000   1.0000   1.0000   1.0000   1.0000   1.0000   1.0000   1.0000
     1.0000   1.0000   1.0000   1.0000   1.0000   1.0000   1.0000   1.0000
     1.0000   1.0000   1.0000   1.0000   1.0000   1.0000   1.0000   1.0000
     1.0000   1.0000   0.9986   0.0018   0.0003   0.0000   0.0000   0.0000
     0.0000   0.0000   0.0000   0.0000   0.0000   0.0000   0.0000   0.0000
     0.0000   0.0000   0.0000   0.0000   0.0000   0.0000   0.0000   0.0000
     0.0000   0.0000   0.0000   0.0000   0.0000   0.0000   0.0000   0.0000
     0.0000   0.0000   0.0000   0.0000   0.0000   0.0000   0.0000   0.0000
     0.0000   0.0000   0.0000   0.0000   0.0000   0.0000   0.0000   0.0000
     0.0000   0.0000   0.0000   0.0000   0.0000   0.0000   0.0000   0.0000

          k = 0.2000-0.3464-0.1002 (  5341 PWs)   bands (ev):

   -79.6577 -79.5053 -79.3628 -74.6718 -74.6618 -74.5246 -45.4976 -45.4521
   -45.4450 -45.3193 -45.3123 -45.3107 -45.2475 -45.1453 -45.1382 -40.6734
   -40.6581 -40.6253 -40.6187 -40.6077 -40.6026 -40.5263 -40.4824 -40.4758
   -11.2371 -11.2301 -11.2169 -11.2026 -11.1846 -11.1744 -11.1659 -11.1592
   -11.1478 -11.1391 -11.1307 -11.1215 -11.1173 -11.1131 -11.1047 -11.0959
   -11.0871 -11.0831 -11.0802 -11.0772 -11.0722 -11.0716 -11.0659 -11.0620
   -11.0614 -11.0479 -11.0452 -11.0394 -11.0324 -11.0271  -7.6237  -7.3914
    -7.1275  -6.8917  -6.7700  -6.5827  -6.4402  -6.3937  -6.3275  -6.2361
    -6.1612  -6.1300  -6.0681  -6.0016  -5.9290  -5.8730  -5.7212  -5.6890
     0.9941   1.0916   1.2617   1.5234   1.7921   1.9676   5.1418   5.2173
     5.3429   5.4001   5.5774   5.6006   5.7278   5.8157   5.8631   5.9585
     6.0586   6.1449   6.1782   6.2454   6.3109   6.4149   6.5437   6.6421
     6.7246   6.8811   6.9388   7.0022   7.1380   7.2360   7.2942   7.3359
     7.4886   7.5357   7.6055   7.6690   7.7833   7.8280   7.9268   8.0070
     8.0595   8.1284   8.2230   8.2816   8.3253   8.4068   8.4589   8.5859
     8.6742   8.6992   8.7915   8.8602   8.8867   8.9516   9.0480   9.0843
     9.1460   9.2475   9.2848   9.3842   9.4105   9.4796   9.5708   9.9001
    10.0732  10.1126  10.3624  10.4768  10.5744  10.6456  10.7888  10.9155
    11.0181  11.2684  11.4606  12.0365  12.1247  12.1789  12.2723  12.3518
    12.3982  12.4887  12.5263  12.6922  13.2323  13.3667  13.5947  13.6911
    14.0784  14.2648  14.7639  14.8791  15.1332  15.1771  15.4704  15.6461
    15.8706  15.9771  16.2544  16.3693  16.6748  16.7619  16.8090  16.8634
    17.0385  17.0847  17.2170  17.3509  19.4544  20.1641  20.3892  20.7337
    21.1218  21.3316  21.5067  21.7031  21.8104  22.1287  22.1628  22.4919
    22.5867  22.6267  22.8004  22.8797  22.9926  23.1679  23.2961  23.3928

     occupation numbers 
     1.0000   1.0000   1.0000   1.0000   1.0000   1.0000   1.0000   1.0000
     1.0000   1.0000   1.0000   1.0000   1.0000   1.0000   1.0000   1.0000
     1.0000   1.0000   1.0000   1.0000   1.0000   1.0000   1.0000   1.0000
     1.0000   1.0000   1.0000   1.0000   1.0000   1.0000   1.0000   1.0000
     1.0000   1.0000   1.0000   1.0000   1.0000   1.0000   1.0000   1.0000
     1.0000   1.0000   1.0000   1.0000   1.0000   1.0000   1.0000   1.0000
     1.0000   1.0000   1.0000   1.0000   1.0000   1.0000   1.0000   1.0000
     1.0000   1.0000   1.0000   1.0000   1.0000   1.0000   1.0000   1.0000
     1.0000   1.0000   1.0000   1.0000   1.0000   1.0000   1.0000   1.0000
     1.0000   1.0000   1.0000   1.0000   1.0000   1.0000   1.0000   1.0000
     1.0000   1.0000   1.0000   1.0000   1.0000   1.0000   1.0000   1.0000
     1.0000   1.0000   1.0000   1.0000   1.0000   1.0000   1.0000   1.0000
     1.0000   1.0000   1.0000   1.0000   1.0000   1.0000   1.0000   1.0000
     1.0000   1.0000   1.0000   1.0000   1.0000   1.0000   1.0000   1.0000
     1.0000   1.0000   1.0000   1.0000   1.0000   1.0000   1.0000   1.0000
     1.0000   1.0000   1.0000   1.0000   1.0000   1.0000   1.0000   1.0000
     1.0000   1.0000   1.0000   1.0000   1.0000   1.0000   1.0000   1.0000
     1.0000   1.0000   1.0000   1.0000   1.0000   1.0000   1.0000   1.0000
     1.0000   1.0000   0.9991   0.0022   0.0001   0.0000   0.0000   0.0000
     0.0000   0.0000   0.0000   0.0000   0.0000   0.0000   0.0000   0.0000
     0.0000   0.0000   0.0000   0.0000   0.0000   0.0000   0.0000   0.0000
     0.0000   0.0000   0.0000   0.0000   0.0000   0.0000   0.0000   0.0000
     0.0000   0.0000   0.0000   0.0000   0.0000   0.0000   0.0000   0.0000
     0.0000   0.0000   0.0000   0.0000   0.0000   0.0000   0.0000   0.0000
     0.0000   0.0000   0.0000   0.0000   0.0000   0.0000   0.0000   0.0000

          k = 0.2000-0.5774-0.1002 (  5341 PWs)   bands (ev):

   -79.6579 -79.5055 -79.3630 -74.6720 -74.6620 -74.5248 -45.4980 -45.4516
   -45.4478 -45.3182 -45.3153 -45.3110 -45.2478 -45.1444 -45.1413 -40.6737
   -40.6590 -40.6262 -40.6189 -40.6069 -40.6058 -40.5265 -40.4815 -40.4787
   -11.2331 -11.2168 -11.2082 -11.1970 -11.1950 -11.1848 -11.1607 -11.1525
   -11.1413 -11.1375 -11.1339 -11.1207 -11.1168 -11.1083 -11.1053 -11.0962
   -11.0910 -11.0845 -11.0813 -11.0766 -11.0730 -11.0718 -11.0704 -11.0638
   -11.0612 -11.0501 -11.0471 -11.0425 -11.0371 -11.0297  -7.2776  -7.2321
    -7.0925  -6.9967  -6.8948  -6.7299  -6.4861  -6.4309  -6.3669  -6.2777
    -6.2125  -6.1182  -6.0836  -6.0402  -5.9670  -5.8199  -5.7700  -5.7040
     1.1364   1.2489   1.3418   1.4299   1.5216   1.6361   5.1411   5.2691
     5.3526   5.4769   5.6707   5.7139   5.8164   5.8745   5.9687   6.0017
     6.1317   6.2150   6.2853   6.3572   6.4211   6.5838   6.6396   6.7628
     6.8156   6.8903   6.9152   6.9709   7.1166   7.1914   7.3405   7.4224
     7.5352   7.5661   7.6343   7.6924   7.7272   7.7973   7.8907   7.9620
     8.0254   8.1416   8.1635   8.2480   8.3278   8.3638   8.5002   8.5325
     8.6140   8.6274   8.7372   8.7866   8.8959   8.9830   9.0460   9.1169
     9.2258   9.2858   9.2999   9.3580   9.4213   9.5207   9.5696   9.8901
    10.0987  10.1912  10.2584  10.3939  10.5279  10.6159  10.8103  10.8793
    10.9214  11.1224  11.3745  12.0696  12.1254  12.1814  12.2797  12.3720
    12.4324  12.4980  12.6212  12.6698  13.2525  13.3487  13.5217  13.7938
    13.8646  14.1912  14.6520  14.9154  14.9521  15.0810  15.1487  15.2299
    15.8683  15.9710  16.0371  16.3703  16.4204  16.5573  16.7690  16.8230
    16.9349  17.0507  17.1301  17.2055  20.2080  20.3654  20.5849  21.1780
    21.2641  21.3428  21.8027  21.8736  21.9057  22.0751  22.3231  22.4524
    22.6363  22.7867  22.8145  22.8851  23.0184  23.0477  23.1728  23.2448

     occupation numbers 
     1.0000   1.0000   1.0000   1.0000   1.0000   1.0000   1.0000   1.0000
     1.0000   1.0000   1.0000   1.0000   1.0000   1.0000   1.0000   1.0000
     1.0000   1.0000   1.0000   1.0000   1.0000   1.0000   1.0000   1.0000
     1.0000   1.0000   1.0000   1.0000   1.0000   1.0000   1.0000   1.0000
     1.0000   1.0000   1.0000   1.0000   1.0000   1.0000   1.0000   1.0000
     1.0000   1.0000   1.0000   1.0000   1.0000   1.0000   1.0000   1.0000
     1.0000   1.0000   1.0000   1.0000   1.0000   1.0000   1.0000   1.0000
     1.0000   1.0000   1.0000   1.0000   1.0000   1.0000   1.0000   1.0000
     1.0000   1.0000   1.0000   1.0000   1.0000   1.0000   1.0000   1.0000
     1.0000   1.0000   1.0000   1.0000   1.0000   1.0000   1.0000   1.0000
     1.0000   1.0000   1.0000   1.0000   1.0000   1.0000   1.0000   1.0000
     1.0000   1.0000   1.0000   1.0000   1.0000   1.0000   1.0000   1.0000
     1.0000   1.0000   1.0000   1.0000   1.0000   1.0000   1.0000   1.0000
     1.0000   1.0000   1.0000   1.0000   1.0000   1.0000   1.0000   1.0000
     1.0000   1.0000   1.0000   1.0000   1.0000   1.0000   1.0000   1.0000
     1.0000   1.0000   1.0000   1.0000   1.0000   1.0000   1.0000   1.0000
     1.0000   1.0000   1.0000   1.0000   1.0000   1.0000   1.0000   1.0000
     1.0000   1.0000   1.0000   1.0000   1.0000   1.0000   1.0000   1.0000
     1.0000   1.0000   1.0000   0.0007   0.0001   0.0000   0.0000   0.0000
     0.0000   0.0000   0.0000   0.0000   0.0000   0.0000   0.0000   0.0000
     0.0000   0.0000   0.0000   0.0000   0.0000   0.0000   0.0000   0.0000
     0.0000   0.0000   0.0000   0.0000   0.0000   0.0000   0.0000   0.0000
     0.0000   0.0000   0.0000   0.0000   0.0000   0.0000   0.0000   0.0000
     0.0000   0.0000   0.0000   0.0000   0.0000   0.0000   0.0000   0.0000
     0.0000   0.0000   0.0000   0.0000   0.0000   0.0000   0.0000   0.0000

     the Fermi energy is    11.7619 ev

!    total energy              =   -3193.10344735 Ry
     estimated scf accuracy    <       0.00033164 Ry
     smearing contrib. (-TS)   =      -0.00019997 Ry
     internal energy E=F+TS    =   -3193.10324739 Ry

     The total energy is F=E-TS. E is the sum of the following terms:
     one-electron contribution =   -1311.22765737 Ry
     hartree contribution      =     840.37012454 Ry
     xc contribution           =    -694.59658060 Ry
     ewald contribution        =   -2027.64913396 Ry

     total magnetization       =     0.00 Bohr mag/cell
     absolute magnetization    =    27.62 Bohr mag/cell

     convergence has been achieved in  15 iterations

     Writing output data file /home/aldair1809/Documentos/QE/4BFO/UHUBBARD/temp/kpoints_ecutwfc_5.in/bifeo3-scf.save/

     init_run     :     70.97s CPU     71.88s WALL (       1 calls)
     electrons    :   2726.76s CPU   2765.33s WALL (       1 calls)

     Called by init_run:
     wfcinit      :     69.76s CPU     70.45s WALL (       1 calls)
     wfcinit:atom :      0.11s CPU      0.13s WALL (      38 calls)
     wfcinit:wfcr :     68.83s CPU     69.48s WALL (      38 calls)
     potinit      :      0.05s CPU      0.09s WALL (       1 calls)
     hinit0       :      0.75s CPU      0.86s WALL (       1 calls)

     Called by electrons:
     c_bands      :   2679.03s CPU   2716.40s WALL (       2 calls)
     sum_band     :     46.82s CPU     47.48s WALL (       2 calls)
     v_of_rho     :      0.17s CPU      0.18s WALL (       3 calls)
     v_h          :      0.00s CPU      0.00s WALL (       3 calls)
     v_xc         :      0.16s CPU      0.17s WALL (       3 calls)
     newd         :      1.03s CPU      1.10s WALL (       3 calls)
     mix_rho      :      0.05s CPU      0.49s WALL (       2 calls)

     Called by c_bands:
     init_us_2    :      1.02s CPU      1.03s WALL (     174 calls)
     ccgdiagg     :   2440.18s CPU   2475.73s WALL (     107 calls)
     wfcrot       :    306.96s CPU    309.42s WALL (     145 calls)

     Called by sum_band:
     sum_band:wei :      0.02s CPU      0.02s WALL (       2 calls)
     sum_band:loo :     45.83s CPU     46.47s WALL (       2 calls)
     sum_band:buf :      0.16s CPU      0.16s WALL (      76 calls)
     sum_band:ini :      0.45s CPU      0.45s WALL (      76 calls)
     sum_band:cal :     33.32s CPU     33.39s WALL (      76 calls)
     sum_band:bec :      0.40s CPU      0.40s WALL (      76 calls)
     addusdens    :      0.95s CPU      0.97s WALL (       2 calls)
     addusd:skk   :      0.00s CPU      0.00s WALL (       8 calls)
     addusd:dgemm :      0.43s CPU      0.46s WALL (      16 calls)
     addusd:qvan2 :      0.50s CPU      0.50s WALL (      16 calls)

     Called by *cgdiagg:
     h_psi        :   1149.87s CPU   1175.78s WALL (  149905 calls)
     s_psi        :    728.96s CPU    733.14s WALL (  299665 calls)

     Called by h_psi:
     h_psi:calbec :    447.70s CPU    457.67s WALL (  149905 calls)
     vloc_psi     :    300.39s CPU    314.78s WALL (  149905 calls)
     add_vuspsi   :    398.39s CPU    400.30s WALL (  149905 calls)
     hs_1psi      :   1323.00s CPU   1348.48s WALL (  149760 calls)
     s_1psi       :    707.87s CPU    715.03s WALL (  149760 calls)

     General routines
     calbec       :    849.02s CPU    865.25s WALL (  299741 calls)
     fft          :      0.09s CPU      0.18s WALL (      61 calls)
     ffts         :      0.00s CPU      0.00s WALL (       4 calls)
     fftw         :    284.70s CPU    298.60s WALL (  373024 calls)
     davcio       :      0.00s CPU      0.44s WALL (      16 calls)

     Parallel routines
     fft_scatt_xy :     24.51s CPU     25.81s WALL (  373089 calls)
     fft_scatt_yz :     67.97s CPU     72.04s WALL (  373089 calls)

     PWSCF        :  46m38.78s CPU  47m24.83s WALL


   This run was terminated on:   8:18:47  30Sep2024            

=------------------------------------------------------------------------------=
   JOB DONE.
=------------------------------------------------------------------------------=
