
     Program PWSCF v.6.7MaX starts on 29Sep2024 at 21: 7:27 

     This program is part of the open-source Quantum ESPRESSO suite
     for quantum simulation of materials; please cite
         "P. Giannozzi et al., J. Phys.:Condens. Matter 21 395502 (2009);
         "P. Giannozzi et al., J. Phys.:Condens. Matter 29 465901 (2017);
          URL http://www.quantum-espresso.org", 
     in publications or presentations arising from this work. More details at
     http://www.quantum-espresso.org/quote

     Parallel version (MPI), running on     4 processors

     MPI processes distributed on     1 nodes
     R & G space division:  proc/nbgrp/npool/nimage =       4
     Waiting for input...
     Reading input from standard input

     Current dimensions of program PWSCF are:
     Max number of different atomic species (ntypx) = 10
     Max number of k-points (npk) =  40000
     Max angular momentum in pseudopotentials (lmaxx) =  3
     Message from routine iosys:
     wrong startingpot: use default (1)

     Subspace diagonalization in iterative solution of the eigenvalue problem:
     one sub-group per band group will be used
     scalapack distributed-memory algorithm (size of sub-group:  2*  2 procs)

     Message from routine setup:
     using ibrav=0 with symmetry is DISCOURAGED, use correct ibrav instead

     Parallelization info
     --------------------
     sticks:   dense  smooth     PW     G-vecs:    dense   smooth      PW
     Min         191     191     55                10703    10703    1691
     Max         193     193     57                10706    10706    1695
     Sum         769     769    223                42815    42815    6771



     bravais-lattice index     =            0
     lattice parameter (alat)  =      10.5468  a.u.
     unit-cell volume          =    2535.5110 (a.u.)^3
     number of atoms/cell      =           30
     number of atomic types    =            4
     number of electrons       =       294.00
     number of Kohn-Sham states=          200
     kinetic-energy cutoff     =      25.0000  Ry
     charge density cutoff     =     100.0000  Ry
     scf convergence threshold =      1.0E-03
     mixing beta               =       0.2000
     number of iterations used =            8  plain     mixing
     Exchange-correlation=  SLA  PW   PBX  PBC
                           (   1   4   3   4   0   0   0)

     celldm(1)=  10.546849  celldm(2)=   0.000000  celldm(3)=   0.000000
     celldm(4)=   0.000000  celldm(5)=   0.000000  celldm(6)=   0.000000

     crystal axes: (cart. coord. in units of alat)
               a(1) = (   1.000000  -0.000000  -0.000000 )  
               a(2) = (  -0.500000   0.866025  -0.000000 )  
               a(3) = (   0.000000  -0.000000   2.495552 )  

     reciprocal axes: (cart. coord. in units 2 pi/alat)
               b(1) = (  1.000000  0.577350  0.000000 )  
               b(2) = (  0.000000  1.154701  0.000000 )  
               b(3) = (  0.000000  0.000000  0.400713 )  


     PseudoPot. # 1 for O  read from file:
     /home/aldair1809/Programas/QE/q-e-qe-7.3/pseudo/o_pbe_v1.2.uspp.F.UPF
     MD5 check sum: 734c27235a0248c51dbae37a1fbe46ec
     Pseudo is Ultrasoft + core correction, Zval =  6.0
     Generated by new atomic code, or converted to UPF format
     Using radial grid of  737 points,  5 beta functions with: 
                l(1) =   0
                l(2) =   0
                l(3) =   1
                l(4) =   1
                l(5) =   2
     Q(r) pseudized with  8 coefficients,  rinner =    0.900   0.900   0.900
                                                       0.900   0.900

     PseudoPot. # 2 for Bi read from file:
     /home/aldair1809/Programas/QE/q-e-qe-7.3/pseudo/bi_pbe_v1.uspp.F.UPF
     MD5 check sum: cceb9f28ec65b6d7ff33140f5b0b1758
     Pseudo is Ultrasoft + core correction, Zval = 15.0
     Generated by new atomic code, or converted to UPF format
     Using radial grid of  899 points,  6 beta functions with: 
                l(1) =   0
                l(2) =   0
                l(3) =   1
                l(4) =   1
                l(5) =   2
                l(6) =   2
     Q(r) pseudized with  6 coefficients,  rinner =    1.000   1.000   1.000
                                                       1.000   1.000

     PseudoPot. # 3 for Fe read from file:
     /home/aldair1809/Programas/QE/q-e-qe-7.3/pseudo/fe_pbe_v1.5.uspp.F.UPF
     MD5 check sum: a130daea23fe5165f5d574ae7f82ed95
     Pseudo is Ultrasoft + core correction, Zval = 16.0
     Generated by new atomic code, or converted to UPF format
     Using radial grid of  861 points,  6 beta functions with: 
                l(1) =   0
                l(2) =   0
                l(3) =   1
                l(4) =   1
                l(5) =   2
                l(6) =   2
     Q(r) pseudized with  8 coefficients,  rinner =    1.000   1.000   1.000
                                                       1.000   1.000

     PseudoPot. # 4 for Fe read from file:
     /home/aldair1809/Programas/QE/q-e-qe-7.3/pseudo/fe_pbe_v1.5.uspp.F.UPF
     MD5 check sum: a130daea23fe5165f5d574ae7f82ed95
     Pseudo is Ultrasoft + core correction, Zval = 16.0
     Generated by new atomic code, or converted to UPF format
     Using radial grid of  861 points,  6 beta functions with: 
                l(1) =   0
                l(2) =   0
                l(3) =   1
                l(4) =   1
                l(5) =   2
                l(6) =   2
     Q(r) pseudized with  8 coefficients,  rinner =    1.000   1.000   1.000
                                                       1.000   1.000

     atomic species   valence    mass     pseudopotential
        O              6.00    15.99940     O ( 1.00)
        Bi            15.00   208.98040     Bi( 1.00)
        Fe1           16.00    55.84500     Fe( 1.00)
        Fe2           16.00    55.84500     Fe( 1.00)

     Starting magnetic structure 
     atomic species   magnetization
        O            0.000
        Bi           0.000
        Fe1         -0.800
        Fe2          0.800

      3 Sym. Ops. (no inversion) found


                                    s                        frac. trans.

      isym =  1     identity                                     

 cryst.   s( 1) = (     1          0          0      )
                  (     0          1          0      )
                  (     0          0          1      )

 cart.    s( 1) = (  1.0000000 -0.0000000  0.0000000 )
                  (  0.0000000  1.0000000  0.0000000 )
                  (  0.0000000  0.0000000  1.0000000 )


      isym =  2     120 deg rotation - cryst. axis [0,0,1]       

 cryst.   s( 2) = (     0          1          0      )
                  (    -1         -1          0      )
                  (     0          0          1      )

 cart.    s( 2) = ( -0.5000000 -0.8660254  0.0000000 )
                  (  0.8660254 -0.5000000  0.0000000 )
                  (  0.0000000  0.0000000  1.0000000 )


      isym =  3     120 deg rotation - cryst. axis [0,0,-1]      

 cryst.   s( 3) = (    -1         -1          0      )
                  (     1          0          0      )
                  (     0          0          1      )

 cart.    s( 3) = ( -0.5000000  0.8660254  0.0000000 )
                  ( -0.8660254 -0.5000000  0.0000000 )
                  (  0.0000000  0.0000000  1.0000000 )


   Cartesian axes

     site n.     atom                  positions (alat units)
         1           Fe1 tau(   1) = (   0.0000000   0.0000000   1.9384582  )
         2           Fe1 tau(   2) = (  -0.0000005   0.5773506   2.3615556  )
         3           Fe1 tau(   3) = (   0.5000005   0.2886748   1.5200787  )
         4           Fe2 tau(   4) = (   0.5000005   0.2886748   0.2722626  )
         5           Fe2 tau(   5) = (   0.0000000   0.0000000   0.6907071  )
         6           Fe2 tau(   6) = (  -0.0000005   0.5773506   1.1137452  )
         7           Bi  tau(   7) = (   0.5000005   0.2886748   2.0843143  )
         8           Bi  tau(   8) = (  -0.0000005   0.5773506   1.6713980  )
         9           Bi  tau(   9) = (  -0.0000005   0.5773506   0.4235448  )
        10           Bi  tau(  10) = (   0.0000000   0.0000000   0.0002821  )
        11           Bi  tau(  11) = (   0.0000000   0.0000000   1.2481025  )
        12           Bi  tau(  12) = (   0.5000005   0.2886748   0.8364865  )
        13           O   tau(  13) = (  -0.3105904   0.6551932   2.2011299  )
        14           O   tau(  14) = (   0.0878817   0.2694488   2.2011299  )
        15           O   tau(  15) = (   0.2227102   0.8074080   2.2011299  )
        16           O   tau(  16) = (   0.4087504   0.5589755   1.7846473  )
        17           O   tau(  17) = (   0.3115373   0.0745013   1.7846473  )
        18           O   tau(  18) = (   0.7797108   0.2325494   1.7846473  )
        19           O   tau(  19) = (   0.6884743   0.0745026   0.5368244  )
        20           O   tau(  20) = (   0.5912412   0.5589858   0.5368244  )
        21           O   tau(  21) = (   0.2202830   0.2325379   0.5368244  )
        22           O   tau(  22) = (  -0.0823010   0.8482993   0.1166193  )
        23           O   tau(  23) = (  -0.1934983   0.3706010   0.1166193  )
        24           O   tau(  24) = (   0.2757993   0.5131505   0.1166193  )
        25           O   tau(  25) = (   0.1934855   0.3705936   1.3644430  )
        26           O   tau(  26) = (   0.0823138   0.8482919   1.3644430  )
        27           O   tau(  27) = (  -0.2757993   0.5131653   1.3644430  )
        28           O   tau(  28) = (  -0.0878870   0.2694458   0.9533686  )
        29           O   tau(  29) = (   0.3105971   0.6551893   0.9533686  )
        30           O   tau(  30) = (  -0.2227086   0.8074149   0.9533686  )

   Crystallographic axes

     site n.     atom                  positions (cryst. coord.)
         1           Fe1 tau(   1) = (  0.0000000  0.0000000  0.7767652  )
         2           Fe1 tau(   2) = (  0.3333330  0.6666670  0.9463058  )
         3           Fe1 tau(   3) = (  0.6666670  0.3333330  0.6091152  )
         4           Fe2 tau(   4) = (  0.6666670  0.3333330  0.1090991  )
         5           Fe2 tau(   5) = (  0.0000000  0.0000000  0.2767753  )
         6           Fe2 tau(   6) = (  0.3333330  0.6666670  0.4462921  )
         7           Bi  tau(   7) = (  0.6666670  0.3333330  0.8352117  )
         8           Bi  tau(   8) = (  0.3333330  0.6666670  0.6697508  )
         9           Bi  tau(   9) = (  0.3333330  0.6666670  0.1697199  )
        10           Bi  tau(  10) = (  0.0000000  0.0000000  0.0001130  )
        11           Bi  tau(  11) = (  0.0000000  0.0000000  0.5001308  )
        12           Bi  tau(  12) = (  0.6666670  0.3333330  0.3351910  )
        13           O   tau(  13) = (  0.0676856  0.7565520  0.8820212  )
        14           O   tau(  14) = (  0.2434480  0.3111326  0.8820212  )
        15           O   tau(  15) = (  0.6888674  0.9323144  0.8820212  )
        16           O   tau(  16) = (  0.7314750  0.6454493  0.7151312  )
        17           O   tau(  17) = (  0.3545507  0.0860267  0.7151312  )
        18           O   tau(  18) = (  0.9139733  0.2685250  0.7151312  )
        19           O   tau(  19) = (  0.7314884  0.0860282  0.2151125  )
        20           O   tau(  20) = (  0.9139718  0.6454612  0.2151125  )
        21           O   tau(  21) = (  0.3545388  0.2685116  0.2151125  )
        22           O   tau(  22) = (  0.4074649  0.9795317  0.0467309  )
        23           O   tau(  23) = (  0.0204683  0.4279331  0.0467309  )
        24           O   tau(  24) = (  0.5720669  0.5925351  0.0467309  )
        25           O   tau(  25) = (  0.4074478  0.4279246  0.5467499  )
        26           O   tau(  26) = (  0.5720754  0.9795232  0.5467499  )
        27           O   tau(  27) = (  0.0204768  0.5925522  0.5467499  )
        28           O   tau(  28) = (  0.0676775  0.3111292  0.3820271  )
        29           O   tau(  29) = (  0.6888708  0.7565474  0.3820271  )
        30           O   tau(  30) = (  0.2434526  0.9323225  0.3820271  )

     number of k points=     6  Gaussian smearing, width (Ry)=  0.0100
                       cart. coord. in units 2pi/alat
        k(    1) = (   0.0000000   0.0000000   0.0000000), wk =   0.0555556
        k(    2) = (   0.0000000   0.0000000  -0.2003565), wk =   0.0555556
        k(    3) = (   0.0000000   0.3849002   0.0000000), wk =   0.3333333
        k(    4) = (   0.0000000   0.3849002  -0.2003565), wk =   0.3333333
        k(    5) = (   0.3333333   0.5773503   0.0000000), wk =   0.1111111
        k(    6) = (   0.3333333   0.5773503  -0.2003565), wk =   0.1111111

                       cryst. coord.
        k(    1) = (   0.0000000   0.0000000   0.0000000), wk =   0.0555556
        k(    2) = (   0.0000000   0.0000000  -0.5000000), wk =   0.0555556
        k(    3) = (   0.0000000   0.3333333   0.0000000), wk =   0.3333333
        k(    4) = (   0.0000000   0.3333333  -0.5000000), wk =   0.3333333
        k(    5) = (   0.3333333   0.3333333   0.0000000), wk =   0.1111111
        k(    6) = (   0.3333333   0.3333333  -0.5000000), wk =   0.1111111

     Dense  grid:    42815 G-vectors     FFT dimensions: (  36,  36,  90)

     Dynamical RAM for                 wfc:       4.08 MB

     Dynamical RAM for     wfc (w. buffer):      53.08 MB

     Dynamical RAM for           str. fact:       0.65 MB

     Dynamical RAM for           local pot:       0.00 MB

     Dynamical RAM for          nlocal pot:       9.19 MB

     Dynamical RAM for                qrad:       3.22 MB

     Dynamical RAM for          rho,v,vnew:       2.34 MB

     Dynamical RAM for               rhoin:       0.78 MB

     Dynamical RAM for            rho*nmix:       5.23 MB

     Dynamical RAM for           G-vectors:       0.69 MB

     Dynamical RAM for          h,s,v(r/c):       0.46 MB

     Dynamical RAM for          <psi|beta>:       1.37 MB

     Dynamical RAM for      wfcinit/wfcrot:       9.28 MB

     Dynamical RAM for           addusdens:      33.48 MB

     Estimated static dynamical RAM per process >      77.37 MB

     Estimated max dynamical RAM per process >     110.85 MB

     Estimated total dynamical RAM >     443.39 MB

     Check: negative core charge=   -0.000640
     Generating pointlists ...
     new r_m :   0.1458 (alat units)  1.5374 (a.u.) for type    1
     new r_m :   0.1687 (alat units)  1.7788 (a.u.) for type    2
     new r_m :   0.1458 (alat units)  1.5374 (a.u.) for type    3
     new r_m :   0.1458 (alat units)  1.5374 (a.u.) for type    4

     Initial potential from superposition of free atoms

     starting charge  281.99969, renormalised to  294.00000

     negative rho (up, down):  1.188E-01 1.188E-01
     Starting wfcs are  204 randomized atomic wfcs

     total cpu time spent up to now is       35.5 secs

     Self-consistent Calculation

     iteration #  1     ecut=    25.00 Ry     beta= 0.20
     CG style diagonalization
     ethr =  1.00E-02,  avg # of iterations =  2.6

     negative rho (up, down):  1.151E-01 1.151E-01

     total cpu time spent up to now is      181.0 secs

     total energy              =   -3187.44150130 Ry
     estimated scf accuracy    <      22.91825040 Ry

     total magnetization       =    -0.00 Bohr mag/cell
     absolute magnetization    =    30.61 Bohr mag/cell

     iteration #  2     ecut=    25.00 Ry     beta= 0.20
     CG style diagonalization
     ethr =  7.80E-03,  avg # of iterations =  3.0

     negative rho (up, down):  1.111E-01 1.112E-01

     total cpu time spent up to now is      306.2 secs

     total energy              =   -3190.17075305 Ry
     estimated scf accuracy    <       9.86640895 Ry

     total magnetization       =    -0.00 Bohr mag/cell
     absolute magnetization    =    29.92 Bohr mag/cell

     iteration #  3     ecut=    25.00 Ry     beta= 0.20
     CG style diagonalization
     ethr =  3.36E-03,  avg # of iterations =  3.2

     negative rho (up, down):  1.113E-01 1.113E-01

     total cpu time spent up to now is      440.6 secs

     total energy              =   -3191.42649029 Ry
     estimated scf accuracy    <       5.40129446 Ry

     total magnetization       =     0.00 Bohr mag/cell
     absolute magnetization    =    27.76 Bohr mag/cell

     iteration #  4     ecut=    25.00 Ry     beta= 0.20
     CG style diagonalization
     ethr =  1.84E-03,  avg # of iterations =  3.0

     negative rho (up, down):  1.096E-01 1.096E-01

     total cpu time spent up to now is      556.0 secs

     total energy              =   -3191.98000719 Ry
     estimated scf accuracy    <       4.92824513 Ry

     total magnetization       =     0.00 Bohr mag/cell
     absolute magnetization    =    27.79 Bohr mag/cell

     iteration #  5     ecut=    25.00 Ry     beta= 0.20
     CG style diagonalization
     ethr =  1.68E-03,  avg # of iterations =  3.7

     negative rho (up, down):  1.097E-01 1.097E-01

     total cpu time spent up to now is      716.0 secs

     total energy              =   -3193.42430881 Ry
     estimated scf accuracy    <      15.53750431 Ry

     total magnetization       =     0.17 Bohr mag/cell
     absolute magnetization    =    27.02 Bohr mag/cell

     iteration #  6     ecut=    25.00 Ry     beta= 0.20
     CG style diagonalization
     ethr =  1.68E-03,  avg # of iterations =  3.1

     negative rho (up, down):  1.096E-01 1.096E-01

     total cpu time spent up to now is      836.2 secs

     total energy              =   -3193.05145489 Ry
     estimated scf accuracy    <       4.82014929 Ry

     total magnetization       =     0.00 Bohr mag/cell
     absolute magnetization    =    28.95 Bohr mag/cell

     iteration #  7     ecut=    25.00 Ry     beta= 0.20
     CG style diagonalization
     ethr =  1.64E-03,  avg # of iterations =  3.0

     negative rho (up, down):  1.099E-01 1.099E-01

     total cpu time spent up to now is      944.7 secs

     total energy              =   -3193.03743556 Ry
     estimated scf accuracy    <       1.06065075 Ry

     total magnetization       =    -0.00 Bohr mag/cell
     absolute magnetization    =    28.58 Bohr mag/cell

     iteration #  8     ecut=    25.00 Ry     beta= 0.20
     CG style diagonalization
     ethr =  3.61E-04,  avg # of iterations =  3.1

     negative rho (up, down):  1.102E-01 1.102E-01

     total cpu time spent up to now is     1061.2 secs

     total energy              =   -3193.10650445 Ry
     estimated scf accuracy    <       0.17524322 Ry

     total magnetization       =     0.00 Bohr mag/cell
     absolute magnetization    =    28.12 Bohr mag/cell

     iteration #  9     ecut=    25.00 Ry     beta= 0.20
     CG style diagonalization
     c_bands:  1 eigenvalues not converged
     c_bands:  1 eigenvalues not converged
     ethr =  5.96E-05,  avg # of iterations =  3.3

     negative rho (up, down):  1.106E-01 1.106E-01

     total cpu time spent up to now is     1176.7 secs

     total energy              =   -3193.11733802 Ry
     estimated scf accuracy    <       0.07180473 Ry

     total magnetization       =    -0.00 Bohr mag/cell
     absolute magnetization    =    27.87 Bohr mag/cell

     iteration # 10     ecut=    25.00 Ry     beta= 0.20
     CG style diagonalization
     c_bands:  2 eigenvalues not converged
     c_bands:  1 eigenvalues not converged
     ethr =  2.44E-05,  avg # of iterations =  3.2

     negative rho (up, down):  1.108E-01 1.108E-01

     total cpu time spent up to now is     1287.9 secs

     total energy              =   -3193.12401272 Ry
     estimated scf accuracy    <       0.04053373 Ry

     total magnetization       =     0.00 Bohr mag/cell
     absolute magnetization    =    27.71 Bohr mag/cell

     iteration # 11     ecut=    25.00 Ry     beta= 0.20
     CG style diagonalization
     c_bands:  1 eigenvalues not converged
     c_bands:  1 eigenvalues not converged
     c_bands:  1 eigenvalues not converged
     ethr =  1.38E-05,  avg # of iterations =  3.1

     negative rho (up, down):  1.110E-01 1.110E-01

     total cpu time spent up to now is     1393.6 secs

     total energy              =   -3193.12162286 Ry
     estimated scf accuracy    <       0.03184579 Ry

     total magnetization       =    -0.00 Bohr mag/cell
     absolute magnetization    =    27.68 Bohr mag/cell

     iteration # 12     ecut=    25.00 Ry     beta= 0.20
     CG style diagonalization
     c_bands:  1 eigenvalues not converged
     c_bands:  1 eigenvalues not converged
     c_bands:  1 eigenvalues not converged
     ethr =  1.08E-05,  avg # of iterations =  3.2

     negative rho (up, down):  1.113E-01 1.113E-01

     total cpu time spent up to now is     1500.4 secs

     total energy              =   -3193.12265325 Ry
     estimated scf accuracy    <       0.01611376 Ry

     total magnetization       =     0.00 Bohr mag/cell
     absolute magnetization    =    27.79 Bohr mag/cell

     iteration # 13     ecut=    25.00 Ry     beta= 0.20
     CG style diagonalization
     c_bands:  1 eigenvalues not converged
     c_bands:  1 eigenvalues not converged
     ethr =  5.48E-06,  avg # of iterations =  3.1

     negative rho (up, down):  1.113E-01 1.113E-01

     total cpu time spent up to now is     1604.5 secs

     total energy              =   -3193.12520127 Ry
     estimated scf accuracy    <       0.00249386 Ry

     total magnetization       =    -0.00 Bohr mag/cell
     absolute magnetization    =    27.64 Bohr mag/cell

     iteration # 14     ecut=    25.00 Ry     beta= 0.20
     CG style diagonalization
     c_bands:  1 eigenvalues not converged
     c_bands:  1 eigenvalues not converged
     c_bands:  1 eigenvalues not converged
     c_bands:  1 eigenvalues not converged
     c_bands:  1 eigenvalues not converged
     c_bands:  1 eigenvalues not converged
     ethr =  8.48E-07,  avg # of iterations =  3.2

     negative rho (up, down):  1.115E-01 1.115E-01

     total cpu time spent up to now is     1714.3 secs

     total energy              =   -3193.12554232 Ry
     estimated scf accuracy    <       0.00128442 Ry

     total magnetization       =    -0.00 Bohr mag/cell
     absolute magnetization    =    27.62 Bohr mag/cell

     iteration # 15     ecut=    25.00 Ry     beta= 0.20
     CG style diagonalization
     ethr =  4.37E-07,  avg # of iterations =  3.1

     negative rho (up, down):  1.116E-01 1.116E-01

     Magnetic moment per site:
     atom:    1    charge:   13.0474    magn:   -3.7124    constr:    0.0000
     atom:    2    charge:   13.0514    magn:   -3.5997    constr:    0.0000
     atom:    3    charge:   13.0515    magn:   -3.6024    constr:    0.0000
     atom:    4    charge:   13.0578    magn:    3.5972    constr:    0.0000
     atom:    5    charge:   13.0420    magn:    3.7161    constr:    0.0000
     atom:    6    charge:   13.0512    magn:    3.6001    constr:    0.0000
     atom:    7    charge:   10.4874    magn:   -0.0162    constr:    0.0000
     atom:    8    charge:   10.4869    magn:   -0.0128    constr:    0.0000
     atom:    9    charge:   10.4869    magn:    0.0127    constr:    0.0000
     atom:   10    charge:   10.4897    magn:   -0.0040    constr:    0.0000
     atom:   11    charge:   10.4897    magn:    0.0040    constr:    0.0000
     atom:   12    charge:   10.4873    magn:    0.0161    constr:    0.0000
     atom:   13    charge:    5.4005    magn:   -0.2179    constr:    0.0000
     atom:   14    charge:    5.4005    magn:   -0.2179    constr:    0.0000
     atom:   15    charge:    5.4005    magn:   -0.2179    constr:    0.0000
     atom:   16    charge:    5.3976    magn:   -0.2303    constr:    0.0000
     atom:   17    charge:    5.3976    magn:   -0.2303    constr:    0.0000
     atom:   18    charge:    5.3976    magn:   -0.2303    constr:    0.0000
     atom:   19    charge:    5.3979    magn:    0.2299    constr:    0.0000
     atom:   20    charge:    5.3979    magn:    0.2299    constr:    0.0000
     atom:   21    charge:    5.3979    magn:    0.2299    constr:    0.0000
     atom:   22    charge:    5.3908    magn:    0.0692    constr:    0.0000
     atom:   23    charge:    5.3908    magn:    0.0692    constr:    0.0000
     atom:   24    charge:    5.3908    magn:    0.0692    constr:    0.0000
     atom:   25    charge:    5.3914    magn:   -0.0685    constr:    0.0000
     atom:   26    charge:    5.3914    magn:   -0.0685    constr:    0.0000
     atom:   27    charge:    5.3914    magn:   -0.0685    constr:    0.0000
     atom:   28    charge:    5.4002    magn:    0.2181    constr:    0.0000
     atom:   29    charge:    5.4002    magn:    0.2181    constr:    0.0000
     atom:   30    charge:    5.4002    magn:    0.2181    constr:    0.0000

     total cpu time spent up to now is     1823.7 secs

     End of self-consistent calculation

 ------ SPIN UP ------------


          k = 0.0000 0.0000 0.0000 (  5411 PWs)   bands (ev):

   -79.6061 -79.4437 -79.3321 -74.6860 -74.6578 -74.4968 -45.4584 -45.4089
   -45.4089 -45.2669 -45.2669 -45.2615 -45.2301 -45.1226 -45.1226 -40.6950
   -40.6609 -40.6419 -40.6419 -40.6111 -40.6110 -40.5077 -40.4602 -40.4602
   -11.2777 -11.2777 -11.2408 -11.2408 -11.2214 -11.2214 -11.1920 -11.1773
   -11.1658 -11.1658 -11.1628 -11.1628 -11.1528 -11.1528 -11.1303 -11.1168
   -11.1073 -11.1073 -11.0996 -11.0995 -11.0953 -11.0953 -11.0869 -11.0862
   -11.0862 -11.0793 -11.0604 -11.0604 -11.0496 -11.0496  -7.9885  -7.6113
    -7.5147  -6.7592  -6.7092  -6.3139  -6.3138  -6.1887  -6.1887  -6.1874
    -6.0865  -6.0864  -5.9912  -5.9911  -5.8339  -5.8339  -5.6656  -5.6656
     0.8099   1.0467   1.1250   1.8962   2.0300   2.7794   4.9503   4.9503
     5.0667   5.4477   5.4477   5.5488   5.5509   5.5509   5.7328   5.7468
     5.7468   5.9550   6.0203   6.0203   6.2150   6.2151   6.2716   6.4288
     6.4288   6.4313   6.5233   6.7417   6.7417   7.0439   7.0439   7.1774
     7.3376   7.6238   7.6238   7.7411   7.8606   7.8606   7.9788   7.9788
     8.1668   8.3139   8.3489   8.3489   8.5216   8.5216   8.5237   8.6447
     8.6741   8.6742   8.8285   8.8285   8.9795   8.9796   9.3152   9.3153
     9.3638   9.3639   9.3667   9.4234   9.4234   9.7667   9.7668  10.0898
    10.2024  10.2024  10.2517  10.4282  10.5229  10.6567  10.7307  10.8957
    10.8958  11.5407  11.5407  12.0549  12.0549  12.2890  12.2890  12.2913
    12.3596  12.3782  12.4623  12.4623  13.2122  13.2122  13.8525  13.8525
    14.3923  14.3923  15.0595  15.1764  15.2784  15.3256  16.3715  16.3715
    16.5054  16.5054  16.5505  16.5506  16.8443  16.9044  17.0975  17.0975
    17.1741  17.1741  17.5850  17.5850  18.3045  19.6052  19.8284  19.9946
    20.6997  20.6997  20.9826  21.0604  21.7018  21.7020  21.8073  21.8073
    22.1317  22.1317  22.8685  23.0402  23.0543  23.0553  23.2041  23.7388

     occupation numbers 
     1.0000   1.0000   1.0000   1.0000   1.0000   1.0000   1.0000   1.0000
     1.0000   1.0000   1.0000   1.0000   1.0000   1.0000   1.0000   1.0000
     1.0000   1.0000   1.0000   1.0000   1.0000   1.0000   1.0000   1.0000
     1.0000   1.0000   1.0000   1.0000   1.0000   1.0000   1.0000   1.0000
     1.0000   1.0000   1.0000   1.0000   1.0000   1.0000   1.0000   1.0000
     1.0000   1.0000   1.0000   1.0000   1.0000   1.0000   1.0000   1.0000
     1.0000   1.0000   1.0000   1.0000   1.0000   1.0000   1.0000   1.0000
     1.0000   1.0000   1.0000   1.0000   1.0000   1.0000   1.0000   1.0000
     1.0000   1.0000   1.0000   1.0000   1.0000   1.0000   1.0000   1.0000
     1.0000   1.0000   1.0000   1.0000   1.0000   1.0000   1.0000   1.0000
     1.0000   1.0000   1.0000   1.0000   1.0000   1.0000   1.0000   1.0000
     1.0000   1.0000   1.0000   1.0000   1.0000   1.0000   1.0000   1.0000
     1.0000   1.0000   1.0000   1.0000   1.0000   1.0000   1.0000   1.0000
     1.0000   1.0000   1.0000   1.0000   1.0000   1.0000   1.0000   1.0000
     1.0000   1.0000   1.0000   1.0000   1.0000   1.0000   1.0000   1.0000
     1.0000   1.0000   1.0000   1.0000   1.0000   1.0000   1.0000   1.0000
     1.0000   1.0000   1.0000   1.0000   1.0000   1.0000   1.0000   1.0000
     1.0000   1.0000   1.0000   1.0000   1.0000   1.0000   1.0000   1.0000
     1.0000   0.9937   0.9936   0.0022   0.0022   0.0000   0.0000   0.0000
     0.0000   0.0000   0.0000   0.0000   0.0000   0.0000   0.0000   0.0000
     0.0000   0.0000   0.0000   0.0000   0.0000   0.0000   0.0000   0.0000
     0.0000   0.0000   0.0000   0.0000   0.0000   0.0000   0.0000   0.0000
     0.0000   0.0000   0.0000   0.0000   0.0000   0.0000   0.0000   0.0000
     0.0000   0.0000   0.0000   0.0000   0.0000   0.0000   0.0000   0.0000
     0.0000   0.0000   0.0000   0.0000   0.0000   0.0000   0.0000   0.0000

          k = 0.0000 0.0000-0.2004 (  5382 PWs)   bands (ev):

   -79.6047 -79.4422 -79.3307 -74.6847 -74.6565 -74.4955 -45.4418 -45.4078
   -45.4078 -45.2654 -45.2653 -45.2476 -45.2109 -45.1213 -45.1213 -40.6791
   -40.6462 -40.6413 -40.6413 -40.6093 -40.6093 -40.4918 -40.4590 -40.4590
   -11.2705 -11.2705 -11.2586 -11.2586 -11.1916 -11.1911 -11.1911 -11.1892
   -11.1892 -11.1772 -11.1590 -11.1590 -11.1513 -11.1513 -11.1252 -11.1217
   -11.1052 -11.1052 -11.1012 -11.1012 -11.0917 -11.0917 -11.0877 -11.0877
   -11.0857 -11.0796 -11.0566 -11.0566 -11.0525 -11.0525  -7.9532  -7.7747
    -7.1740  -7.1576  -6.4626  -6.3137  -6.3136  -6.2480  -6.1901  -6.1901
    -6.0794  -6.0793  -5.9996  -5.9995  -5.8299  -5.8298  -5.6665  -5.6665
     0.8513   0.9009   1.4394   1.4622   2.4771   2.5468   4.9968   4.9968
     5.1093   5.2961   5.2962   5.3624   5.6233   5.6233   5.7914   5.7915
     5.9662   6.0135   6.0589   6.0590   6.2933   6.3245   6.3245   6.4146
     6.4423   6.4424   6.5372   6.5628   6.5629   6.7722   7.0470   7.0470
     7.6052   7.6333   7.6333   7.7734   7.7857   7.7858   8.0313   8.0313
     8.1160   8.3393   8.3972   8.3972   8.4212   8.5467   8.5467   8.7551
     8.7551   8.8886   8.8887   8.9788   9.0216   9.0216   9.1418   9.1528
     9.1529   9.2625   9.2625   9.5565   9.5565   9.7224   9.7225  10.1472
    10.2594  10.2594  10.2909  10.3615  10.5074  10.6623  10.8120  10.9055
    10.9056  11.5464  11.5465  12.0729  12.0729  12.2921  12.3017  12.3017
    12.3792  12.4002  12.4640  12.4640  13.2229  13.2229  13.8733  13.8734
    14.3999  14.3999  14.6826  14.7410  16.1711  16.2048  16.2795  16.3413
    16.3683  16.3683  16.4301  16.4301  16.7768  16.7768  16.7958  16.7958
    17.3964  17.3965  17.5147  17.5147  18.5853  19.1646  20.0397  20.3047
    20.7890  20.8825  20.8825  21.0145  21.0843  21.0844  22.3954  22.3955
    22.5191  22.5192  22.7567  22.7575  22.7884  22.7889  22.8869  23.0951

     occupation numbers 
     1.0000   1.0000   1.0000   1.0000   1.0000   1.0000   1.0000   1.0000
     1.0000   1.0000   1.0000   1.0000   1.0000   1.0000   1.0000   1.0000
     1.0000   1.0000   1.0000   1.0000   1.0000   1.0000   1.0000   1.0000
     1.0000   1.0000   1.0000   1.0000   1.0000   1.0000   1.0000   1.0000
     1.0000   1.0000   1.0000   1.0000   1.0000   1.0000   1.0000   1.0000
     1.0000   1.0000   1.0000   1.0000   1.0000   1.0000   1.0000   1.0000
     1.0000   1.0000   1.0000   1.0000   1.0000   1.0000   1.0000   1.0000
     1.0000   1.0000   1.0000   1.0000   1.0000   1.0000   1.0000   1.0000
     1.0000   1.0000   1.0000   1.0000   1.0000   1.0000   1.0000   1.0000
     1.0000   1.0000   1.0000   1.0000   1.0000   1.0000   1.0000   1.0000
     1.0000   1.0000   1.0000   1.0000   1.0000   1.0000   1.0000   1.0000
     1.0000   1.0000   1.0000   1.0000   1.0000   1.0000   1.0000   1.0000
     1.0000   1.0000   1.0000   1.0000   1.0000   1.0000   1.0000   1.0000
     1.0000   1.0000   1.0000   1.0000   1.0000   1.0000   1.0000   1.0000
     1.0000   1.0000   1.0000   1.0000   1.0000   1.0000   1.0000   1.0000
     1.0000   1.0000   1.0000   1.0000   1.0000   1.0000   1.0000   1.0000
     1.0000   1.0000   1.0000   1.0000   1.0000   1.0000   1.0000   1.0000
     1.0000   1.0000   1.0000   1.0000   1.0000   1.0000   1.0000   1.0000
     1.0000   0.9925   0.9925   0.0012   0.0012   0.0000   0.0000   0.0000
     0.0000   0.0000   0.0000   0.0000   0.0000   0.0000   0.0000   0.0000
     0.0000   0.0000   0.0000   0.0000   0.0000   0.0000   0.0000   0.0000
     0.0000   0.0000   0.0000   0.0000   0.0000   0.0000   0.0000   0.0000
     0.0000   0.0000   0.0000   0.0000   0.0000   0.0000   0.0000   0.0000
     0.0000   0.0000   0.0000   0.0000   0.0000   0.0000   0.0000   0.0000
     0.0000   0.0000   0.0000   0.0000   0.0000   0.0000   0.0000   0.0000

          k = 0.0000 0.3849 0.0000 (  5358 PWs)   bands (ev):

   -79.6042 -79.4418 -79.3302 -74.6844 -74.6562 -74.4951 -45.4495 -45.4051
   -45.3954 -45.2634 -45.2540 -45.2530 -45.2198 -45.1188 -45.1090 -40.6868
   -40.6530 -40.6381 -40.6286 -40.6081 -40.5987 -40.4990 -40.4567 -40.4476
   -11.2689 -11.2538 -11.2416 -11.2289 -11.2038 -11.2014 -11.1924 -11.1861
   -11.1759 -11.1713 -11.1546 -11.1512 -11.1457 -11.1399 -11.1317 -11.1244
   -11.1122 -11.1099 -11.1062 -11.1031 -11.0996 -11.0965 -11.0935 -11.0877
   -11.0838 -11.0772 -11.0687 -11.0642 -11.0596 -11.0532  -7.6571  -7.3466
    -7.2342  -6.9109  -6.6927  -6.5411  -6.4595  -6.3917  -6.2817  -6.2594
    -6.1571  -6.1350  -6.0290  -6.0119  -5.9015  -5.8837  -5.7307  -5.6773
     0.9583   1.0410   1.2552   1.5453   1.8121   2.0213   5.0948   5.2970
     5.3293   5.4247   5.4882   5.6552   5.6962   5.7752   5.9165   5.9657
     6.0405   6.1041   6.1419   6.2339   6.3565   6.4344   6.5614   6.5840
     6.6999   6.8309   6.9960   7.0575   7.1891   7.2479   7.2967   7.3806
     7.4171   7.4884   7.5935   7.6945   7.7479   7.8190   7.9249   8.0313
     8.1074   8.1488   8.2382   8.3061   8.3767   8.4631   8.5128   8.5611
     8.5914   8.7103   8.7871   8.8750   8.9555   8.9995   9.0273   9.1089
     9.1636   9.1891   9.2681   9.4080   9.4435   9.5171   9.5249   9.9134
    10.0743  10.1778  10.3020  10.3890  10.5428  10.6460  10.8517  10.9894
    11.0048  11.2535  11.5103  12.0399  12.1013  12.1782  12.2818  12.3594
    12.4236  12.4447  12.5579  12.7101  13.2388  13.3665  13.5372  13.8034
    13.9577  14.3245  14.6760  15.1591  15.1806  15.2896  15.4888  15.6584
    15.7383  15.7812  16.1569  16.6344  16.6787  16.7718  16.8121  16.9525
    17.0806  17.1402  17.2263  17.3218  19.3678  20.1983  20.3365  20.6213
    21.0883  21.2491  21.6401  21.6780  21.8297  22.0840  22.1833  22.2344
    22.3727  22.5810  22.7864  23.1143  23.1734  23.2668  23.3631  23.4077

     occupation numbers 
     1.0000   1.0000   1.0000   1.0000   1.0000   1.0000   1.0000   1.0000
     1.0000   1.0000   1.0000   1.0000   1.0000   1.0000   1.0000   1.0000
     1.0000   1.0000   1.0000   1.0000   1.0000   1.0000   1.0000   1.0000
     1.0000   1.0000   1.0000   1.0000   1.0000   1.0000   1.0000   1.0000
     1.0000   1.0000   1.0000   1.0000   1.0000   1.0000   1.0000   1.0000
     1.0000   1.0000   1.0000   1.0000   1.0000   1.0000   1.0000   1.0000
     1.0000   1.0000   1.0000   1.0000   1.0000   1.0000   1.0000   1.0000
     1.0000   1.0000   1.0000   1.0000   1.0000   1.0000   1.0000   1.0000
     1.0000   1.0000   1.0000   1.0000   1.0000   1.0000   1.0000   1.0000
     1.0000   1.0000   1.0000   1.0000   1.0000   1.0000   1.0000   1.0000
     1.0000   1.0000   1.0000   1.0000   1.0000   1.0000   1.0000   1.0000
     1.0000   1.0000   1.0000   1.0000   1.0000   1.0000   1.0000   1.0000
     1.0000   1.0000   1.0000   1.0000   1.0000   1.0000   1.0000   1.0000
     1.0000   1.0000   1.0000   1.0000   1.0000   1.0000   1.0000   1.0000
     1.0000   1.0000   1.0000   1.0000   1.0000   1.0000   1.0000   1.0000
     1.0000   1.0000   1.0000   1.0000   1.0000   1.0000   1.0000   1.0000
     1.0000   1.0000   1.0000   1.0000   1.0000   1.0000   1.0000   1.0000
     1.0000   1.0000   1.0000   1.0000   1.0000   1.0000   1.0000   1.0000
     1.0000   1.0000   0.9975   0.0035   0.0004   0.0000   0.0000   0.0000
     0.0000   0.0000   0.0000   0.0000   0.0000   0.0000   0.0000   0.0000
     0.0000   0.0000   0.0000   0.0000   0.0000   0.0000   0.0000   0.0000
     0.0000   0.0000   0.0000   0.0000   0.0000   0.0000   0.0000   0.0000
     0.0000   0.0000   0.0000   0.0000   0.0000   0.0000   0.0000   0.0000
     0.0000   0.0000   0.0000   0.0000   0.0000   0.0000   0.0000   0.0000
     0.0000   0.0000   0.0000   0.0000   0.0000   0.0000   0.0000   0.0000

          k = 0.0000 0.3849-0.2004 (  5354 PWs)   bands (ev):

   -79.6041 -79.4416 -79.3300 -74.6842 -74.6560 -74.4950 -45.4533 -45.4003
   -45.3946 -45.2579 -45.2570 -45.2522 -45.2235 -45.1137 -45.1078 -40.6900
   -40.6578 -40.6345 -40.6269 -40.6021 -40.5973 -40.5023 -40.4518 -40.4464
   -11.2718 -11.2443 -11.2434 -11.2252 -11.2188 -11.1988 -11.1959 -11.1825
   -11.1730 -11.1686 -11.1544 -11.1505 -11.1451 -11.1402 -11.1322 -11.1253
   -11.1117 -11.1094 -11.1061 -11.1035 -11.1001 -11.0957 -11.0934 -11.0882
   -11.0839 -11.0775 -11.0687 -11.0635 -11.0617 -11.0519  -7.6319  -7.4574
    -7.0664  -6.9453  -6.7883  -6.5074  -6.4566  -6.4089  -6.2908  -6.1923
    -6.1552  -6.1362  -6.0384  -6.0323  -5.9055  -5.8795  -5.7307  -5.6773
     0.9387   1.0768   1.2492   1.5174   1.8360   2.0151   5.0812   5.2975
     5.3323   5.4952   5.5263   5.6325   5.6814   5.8189   5.8491   5.9191
     6.0422   6.0825   6.1386   6.2362   6.3320   6.4200   6.5921   6.6195
     6.7053   6.8322   6.9328   7.0337   7.1883   7.2327   7.2795   7.4530
     7.4631   7.5375   7.6494   7.7042   7.7760   7.8454   7.8994   8.0026
     8.0314   8.1613   8.2084   8.2892   8.3932   8.4529   8.4957   8.5610
     8.6183   8.7218   8.7672   8.8696   8.9026   8.9944   9.0828   9.1303
     9.1702   9.2497   9.3121   9.3384   9.4009   9.4819   9.5597   9.9368
    10.0550  10.1537  10.2836  10.4480  10.5279  10.6686  10.8796  10.9833
    11.0327  11.2216  11.5011  12.0429  12.1018  12.1751  12.2866  12.3544
    12.4286  12.4493  12.5572  12.7079  13.2504  13.3647  13.5389  13.7921
    13.9616  14.3146  14.7789  15.0195  15.1759  15.2681  15.4042  15.6420
    15.8716  15.9153  16.2829  16.4793  16.6380  16.6754  16.7605  16.9856
    17.0888  17.1681  17.2521  17.3600  19.4327  19.9914  20.3559  20.7237
    21.1108  21.3097  21.6006  21.7024  21.8047  21.8575  22.2827  22.4721
    22.5438  22.6373  22.7443  22.8524  22.9638  23.2799  23.3791  23.5106

     occupation numbers 
     1.0000   1.0000   1.0000   1.0000   1.0000   1.0000   1.0000   1.0000
     1.0000   1.0000   1.0000   1.0000   1.0000   1.0000   1.0000   1.0000
     1.0000   1.0000   1.0000   1.0000   1.0000   1.0000   1.0000   1.0000
     1.0000   1.0000   1.0000   1.0000   1.0000   1.0000   1.0000   1.0000
     1.0000   1.0000   1.0000   1.0000   1.0000   1.0000   1.0000   1.0000
     1.0000   1.0000   1.0000   1.0000   1.0000   1.0000   1.0000   1.0000
     1.0000   1.0000   1.0000   1.0000   1.0000   1.0000   1.0000   1.0000
     1.0000   1.0000   1.0000   1.0000   1.0000   1.0000   1.0000   1.0000
     1.0000   1.0000   1.0000   1.0000   1.0000   1.0000   1.0000   1.0000
     1.0000   1.0000   1.0000   1.0000   1.0000   1.0000   1.0000   1.0000
     1.0000   1.0000   1.0000   1.0000   1.0000   1.0000   1.0000   1.0000
     1.0000   1.0000   1.0000   1.0000   1.0000   1.0000   1.0000   1.0000
     1.0000   1.0000   1.0000   1.0000   1.0000   1.0000   1.0000   1.0000
     1.0000   1.0000   1.0000   1.0000   1.0000   1.0000   1.0000   1.0000
     1.0000   1.0000   1.0000   1.0000   1.0000   1.0000   1.0000   1.0000
     1.0000   1.0000   1.0000   1.0000   1.0000   1.0000   1.0000   1.0000
     1.0000   1.0000   1.0000   1.0000   1.0000   1.0000   1.0000   1.0000
     1.0000   1.0000   1.0000   1.0000   1.0000   1.0000   1.0000   1.0000
     1.0000   1.0000   0.9982   0.0032   0.0004   0.0000   0.0000   0.0000
     0.0000   0.0000   0.0000   0.0000   0.0000   0.0000   0.0000   0.0000
     0.0000   0.0000   0.0000   0.0000   0.0000   0.0000   0.0000   0.0000
     0.0000   0.0000   0.0000   0.0000   0.0000   0.0000   0.0000   0.0000
     0.0000   0.0000   0.0000   0.0000   0.0000   0.0000   0.0000   0.0000
     0.0000   0.0000   0.0000   0.0000   0.0000   0.0000   0.0000   0.0000
     0.0000   0.0000   0.0000   0.0000   0.0000   0.0000   0.0000   0.0000

          k = 0.3333 0.5774 0.0000 (  5370 PWs)   bands (ev):

   -79.6050 -79.4425 -79.3309 -74.6850 -74.6568 -74.4958 -45.4525 -45.4037
   -45.4035 -45.2617 -45.2612 -45.2553 -45.2233 -45.1173 -45.1170 -40.6892
   -40.6581 -40.6371 -40.6342 -40.6061 -40.6059 -40.5017 -40.4552 -40.4551
   -11.2437 -11.2436 -11.2330 -11.2307 -11.2269 -11.2153 -11.1879 -11.1750
   -11.1640 -11.1624 -11.1612 -11.1493 -11.1445 -11.1348 -11.1272 -11.1247
   -11.1185 -11.1130 -11.1046 -11.1029 -11.1019 -11.0964 -11.0959 -11.0958
   -11.0848 -11.0756 -11.0718 -11.0683 -11.0662 -11.0633  -7.1748  -7.1623
    -7.1265  -7.0129  -6.8720  -6.8271  -6.4602  -6.4540  -6.4527  -6.2300
    -6.1561  -6.1138  -6.1052  -6.0474  -6.0310  -5.7911  -5.7644  -5.7148
     1.2803   1.3206   1.3418   1.3912   1.4096   1.4617   5.2211   5.2397
     5.3478   5.5128   5.6862   5.6969   5.7991   5.8710   5.9375   6.1297
     6.1571   6.2263   6.3464   6.3727   6.4505   6.6584   6.7133   6.8097
     6.8231   6.8622   6.9644   7.1199   7.1728   7.1992   7.3032   7.3352
     7.3804   7.5192   7.5206   7.6983   7.8307   7.8729   7.8855   7.9464
     8.0087   8.0500   8.2507   8.2916   8.3617   8.4193   8.4558   8.4985
     8.5662   8.6632   8.7434   8.7574   8.8170   8.8812   9.1531   9.1888
     9.2140   9.2837   9.3333   9.3467   9.4845   9.5279   9.5368  10.0407
    10.0552  10.2363  10.3429  10.3434  10.3699  10.5953  10.8206  10.8442
    10.9718  11.2365  11.2384  12.1017  12.1256  12.1477  12.2967  12.3542
    12.4674  12.5859  12.6072  12.6347  13.2430  13.3432  13.4937  13.9273
    13.9514  13.9660  14.7749  14.7754  14.7937  15.1293  15.1458  15.1744
    15.9219  15.9961  16.0107  16.2454  16.3354  16.3375  16.8411  16.8432
    16.9210  16.9755  17.1266  17.1964  20.3681  20.4324  20.6007  21.3308
    21.3488  21.3523  21.8101  21.8133  21.8231  22.2380  22.2648  22.3867
    22.6557  22.6982  22.7284  22.9563  23.0047  23.0639  23.2100  23.2847

     occupation numbers 
     1.0000   1.0000   1.0000   1.0000   1.0000   1.0000   1.0000   1.0000
     1.0000   1.0000   1.0000   1.0000   1.0000   1.0000   1.0000   1.0000
     1.0000   1.0000   1.0000   1.0000   1.0000   1.0000   1.0000   1.0000
     1.0000   1.0000   1.0000   1.0000   1.0000   1.0000   1.0000   1.0000
     1.0000   1.0000   1.0000   1.0000   1.0000   1.0000   1.0000   1.0000
     1.0000   1.0000   1.0000   1.0000   1.0000   1.0000   1.0000   1.0000
     1.0000   1.0000   1.0000   1.0000   1.0000   1.0000   1.0000   1.0000
     1.0000   1.0000   1.0000   1.0000   1.0000   1.0000   1.0000   1.0000
     1.0000   1.0000   1.0000   1.0000   1.0000   1.0000   1.0000   1.0000
     1.0000   1.0000   1.0000   1.0000   1.0000   1.0000   1.0000   1.0000
     1.0000   1.0000   1.0000   1.0000   1.0000   1.0000   1.0000   1.0000
     1.0000   1.0000   1.0000   1.0000   1.0000   1.0000   1.0000   1.0000
     1.0000   1.0000   1.0000   1.0000   1.0000   1.0000   1.0000   1.0000
     1.0000   1.0000   1.0000   1.0000   1.0000   1.0000   1.0000   1.0000
     1.0000   1.0000   1.0000   1.0000   1.0000   1.0000   1.0000   1.0000
     1.0000   1.0000   1.0000   1.0000   1.0000   1.0000   1.0000   1.0000
     1.0000   1.0000   1.0000   1.0000   1.0000   1.0000   1.0000   1.0000
     1.0000   1.0000   1.0000   1.0000   1.0000   1.0000   1.0000   1.0000
     1.0000   1.0000   1.0000   0.0004   0.0002   0.0001   0.0000   0.0000
     0.0000   0.0000   0.0000   0.0000   0.0000   0.0000   0.0000   0.0000
     0.0000   0.0000   0.0000   0.0000   0.0000   0.0000   0.0000   0.0000
     0.0000   0.0000   0.0000   0.0000   0.0000   0.0000   0.0000   0.0000
     0.0000   0.0000   0.0000   0.0000   0.0000   0.0000   0.0000   0.0000
     0.0000   0.0000   0.0000   0.0000   0.0000   0.0000   0.0000   0.0000
     0.0000   0.0000   0.0000   0.0000   0.0000   0.0000   0.0000   0.0000

          k = 0.3333 0.5774-0.2004 (  5322 PWs)   bands (ev):

   -79.6030 -79.4405 -79.3290 -74.6833 -74.6551 -74.4941 -45.4428 -45.3946
   -45.3944 -45.2531 -45.2525 -45.2461 -45.2138 -45.1084 -45.1082 -40.6800
   -40.6484 -40.6282 -40.6268 -40.5983 -40.5979 -40.4930 -40.4470 -40.4468
   -11.2430 -11.2428 -11.2335 -11.2284 -11.2269 -11.2192 -11.1784 -11.1693
   -11.1692 -11.1673 -11.1612 -11.1511 -11.1431 -11.1343 -11.1242 -11.1205
   -11.1180 -11.1173 -11.1014 -11.1006 -11.0993 -11.0979 -11.0972 -11.0963
   -11.0831 -11.0759 -11.0708 -11.0675 -11.0659 -11.0631  -7.1722  -7.1596
    -7.1163  -7.0283  -6.8823  -6.8406  -6.4218  -6.4072  -6.3874  -6.3189
    -6.2536  -6.1894  -6.0395  -5.9967  -5.9908  -5.7977  -5.7710  -5.7206
     1.2881   1.3273   1.3560   1.3854   1.3975   1.4571   5.2357   5.2511
     5.3597   5.5216   5.7026   5.7163   5.8528   5.9351   5.9390   6.1138
     6.1169   6.2856   6.3004   6.3906   6.4089   6.5916   6.7544   6.7595
     6.8496   6.8631   6.8656   7.0991   7.1101   7.1258   7.3808   7.5100
     7.5742   7.6307   7.6332   7.6724   7.7306   7.8195   7.8580   7.9915
     8.0846   8.0852   8.1920   8.2359   8.2403   8.4223   8.4345   8.5000
     8.5895   8.6674   8.7240   8.8243   8.9425   8.9467   9.0805   9.1308
     9.1770   9.2935   9.3475   9.3995   9.5082   9.5393   9.5538  10.0255
    10.0366  10.2677  10.3531  10.3622  10.3666  10.6149  10.8295  10.8511
    10.9881  11.2593  11.2717  12.1015  12.1398  12.1705  12.3098  12.3692
    12.4777  12.5934  12.6284  12.6533  13.2559  13.3501  13.5216  13.9334
    13.9726  13.9975  14.8430  14.8472  14.8623  14.9697  14.9784  15.0176
    16.1908  16.1996  16.2038  16.2083  16.2614  16.3029  16.8299  16.8746
    16.8828  16.9742  16.9993  17.0647  20.3770  20.4458  20.6111  21.3312
    21.3665  21.3745  21.9597  21.9648  21.9799  22.1144  22.1286  22.1784
    22.6809  22.7300  22.7796  22.8553  22.8821  22.9314  23.5325  23.5493

     occupation numbers 
     1.0000   1.0000   1.0000   1.0000   1.0000   1.0000   1.0000   1.0000
     1.0000   1.0000   1.0000   1.0000   1.0000   1.0000   1.0000   1.0000
     1.0000   1.0000   1.0000   1.0000   1.0000   1.0000   1.0000   1.0000
     1.0000   1.0000   1.0000   1.0000   1.0000   1.0000   1.0000   1.0000
     1.0000   1.0000   1.0000   1.0000   1.0000   1.0000   1.0000   1.0000
     1.0000   1.0000   1.0000   1.0000   1.0000   1.0000   1.0000   1.0000
     1.0000   1.0000   1.0000   1.0000   1.0000   1.0000   1.0000   1.0000
     1.0000   1.0000   1.0000   1.0000   1.0000   1.0000   1.0000   1.0000
     1.0000   1.0000   1.0000   1.0000   1.0000   1.0000   1.0000   1.0000
     1.0000   1.0000   1.0000   1.0000   1.0000   1.0000   1.0000   1.0000
     1.0000   1.0000   1.0000   1.0000   1.0000   1.0000   1.0000   1.0000
     1.0000   1.0000   1.0000   1.0000   1.0000   1.0000   1.0000   1.0000
     1.0000   1.0000   1.0000   1.0000   1.0000   1.0000   1.0000   1.0000
     1.0000   1.0000   1.0000   1.0000   1.0000   1.0000   1.0000   1.0000
     1.0000   1.0000   1.0000   1.0000   1.0000   1.0000   1.0000   1.0000
     1.0000   1.0000   1.0000   1.0000   1.0000   1.0000   1.0000   1.0000
     1.0000   1.0000   1.0000   1.0000   1.0000   1.0000   1.0000   1.0000
     1.0000   1.0000   1.0000   1.0000   1.0000   1.0000   1.0000   1.0000
     1.0000   1.0000   1.0000   0.0004   0.0001   0.0000   0.0000   0.0000
     0.0000   0.0000   0.0000   0.0000   0.0000   0.0000   0.0000   0.0000
     0.0000   0.0000   0.0000   0.0000   0.0000   0.0000   0.0000   0.0000
     0.0000   0.0000   0.0000   0.0000   0.0000   0.0000   0.0000   0.0000
     0.0000   0.0000   0.0000   0.0000   0.0000   0.0000   0.0000   0.0000
     0.0000   0.0000   0.0000   0.0000   0.0000   0.0000   0.0000   0.0000
     0.0000   0.0000   0.0000   0.0000   0.0000   0.0000   0.0000   0.0000

 ------ SPIN DOWN ----------


          k = 0.0000 0.0000 0.0000 (  5411 PWs)   bands (ev):

   -79.6252 -79.4548 -79.3163 -74.6682 -74.6509 -74.5198 -45.4772 -45.4274
   -45.4274 -45.2780 -45.2780 -45.2724 -45.2149 -45.1073 -45.1073 -40.6780
   -40.6536 -40.6248 -40.6248 -40.6039 -40.6039 -40.5297 -40.4825 -40.4825
   -11.2784 -11.2784 -11.2414 -11.2414 -11.2208 -11.2208 -11.1918 -11.1778
   -11.1664 -11.1664 -11.1623 -11.1623 -11.1524 -11.1524 -11.1332 -11.1135
   -11.1078 -11.1078 -11.1014 -11.1014 -11.0948 -11.0948 -11.0922 -11.0840
   -11.0840 -11.0739 -11.0637 -11.0637 -11.0459 -11.0459  -7.9903  -7.6109
    -7.5133  -6.7590  -6.7092  -6.3148  -6.3147  -6.1909  -6.1909  -6.1851
    -6.0860  -6.0860  -5.9953  -5.9952  -5.8298  -5.8297  -5.6602  -5.6602
     0.8090   1.0477   1.1251   1.8966   2.0298   2.7801   4.9475   4.9475
     5.0644   5.4462   5.4462   5.5475   5.5486   5.5486   5.7334   5.7447
     5.7447   5.9516   6.0197   6.0197   6.2100   6.2101   6.2701   6.4332
     6.4332   6.4333   6.5264   6.7441   6.7442   7.0400   7.0400   7.1770
     7.3373   7.6246   7.6247   7.7384   7.8622   7.8622   7.9752   7.9752
     8.1692   8.3090   8.3466   8.3467   8.5228   8.5228   8.5236   8.6429
     8.6719   8.6719   8.8270   8.8270   8.9796   8.9797   9.3164   9.3165
     9.3645   9.3646   9.3658   9.4220   9.4221   9.7701   9.7702  10.0928
    10.1991  10.1991  10.2551  10.4302  10.5237  10.6533  10.7290  10.8961
    10.8961  11.5344  11.5345  12.0637  12.0637  12.2929  12.2929  12.2929
    12.3599  12.3813  12.4538  12.4538  13.2176  13.2176  13.8472  13.8473
    14.3952  14.3953  15.0592  15.1737  15.2807  15.3267  16.3700  16.3700
    16.5078  16.5078  16.5499  16.5499  16.8449  16.9048  17.0985  17.0985
    17.1732  17.1732  17.5866  17.5866  18.3030  19.6037  19.8288  19.9947
    20.6992  20.6992  20.9826  21.0611  21.7017  21.7018  21.8075  21.8074
    22.1317  22.1318  22.8680  23.0385  23.0545  23.0550  23.2053  23.7363

     occupation numbers 
     1.0000   1.0000   1.0000   1.0000   1.0000   1.0000   1.0000   1.0000
     1.0000   1.0000   1.0000   1.0000   1.0000   1.0000   1.0000   1.0000
     1.0000   1.0000   1.0000   1.0000   1.0000   1.0000   1.0000   1.0000
     1.0000   1.0000   1.0000   1.0000   1.0000   1.0000   1.0000   1.0000
     1.0000   1.0000   1.0000   1.0000   1.0000   1.0000   1.0000   1.0000
     1.0000   1.0000   1.0000   1.0000   1.0000   1.0000   1.0000   1.0000
     1.0000   1.0000   1.0000   1.0000   1.0000   1.0000   1.0000   1.0000
     1.0000   1.0000   1.0000   1.0000   1.0000   1.0000   1.0000   1.0000
     1.0000   1.0000   1.0000   1.0000   1.0000   1.0000   1.0000   1.0000
     1.0000   1.0000   1.0000   1.0000   1.0000   1.0000   1.0000   1.0000
     1.0000   1.0000   1.0000   1.0000   1.0000   1.0000   1.0000   1.0000
     1.0000   1.0000   1.0000   1.0000   1.0000   1.0000   1.0000   1.0000
     1.0000   1.0000   1.0000   1.0000   1.0000   1.0000   1.0000   1.0000
     1.0000   1.0000   1.0000   1.0000   1.0000   1.0000   1.0000   1.0000
     1.0000   1.0000   1.0000   1.0000   1.0000   1.0000   1.0000   1.0000
     1.0000   1.0000   1.0000   1.0000   1.0000   1.0000   1.0000   1.0000
     1.0000   1.0000   1.0000   1.0000   1.0000   1.0000   1.0000   1.0000
     1.0000   1.0000   1.0000   1.0000   1.0000   1.0000   1.0000   1.0000
     1.0000   0.9947   0.9947   0.0016   0.0016   0.0000   0.0000   0.0000
     0.0000   0.0000   0.0000   0.0000   0.0000   0.0000   0.0000   0.0000
     0.0000   0.0000   0.0000   0.0000   0.0000   0.0000   0.0000   0.0000
     0.0000   0.0000   0.0000   0.0000   0.0000   0.0000   0.0000   0.0000
     0.0000   0.0000   0.0000   0.0000   0.0000   0.0000   0.0000   0.0000
     0.0000   0.0000   0.0000   0.0000   0.0000   0.0000   0.0000   0.0000
     0.0000   0.0000   0.0000   0.0000   0.0000   0.0000   0.0000   0.0000

          k = 0.0000 0.0000-0.2004 (  5382 PWs)   bands (ev):

   -79.6237 -79.4534 -79.3149 -74.6669 -74.6497 -74.5186 -45.4605 -45.4263
   -45.4263 -45.2765 -45.2765 -45.2575 -45.1969 -45.1060 -45.1060 -40.6619
   -40.6392 -40.6245 -40.6245 -40.6019 -40.6019 -40.5138 -40.4813 -40.4813
   -11.2719 -11.2719 -11.2580 -11.2580 -11.1930 -11.1930 -11.1914 -11.1872
   -11.1872 -11.1777 -11.1592 -11.1592 -11.1508 -11.1508 -11.1305 -11.1161
   -11.1060 -11.1060 -11.1016 -11.1016 -11.0937 -11.0937 -11.0913 -11.0839
   -11.0839 -11.0738 -11.0619 -11.0619 -11.0469 -11.0469  -7.9560  -7.7726
    -7.1739  -7.1566  -6.4639  -6.3146  -6.3145  -6.2446  -6.1922  -6.1922
    -6.0789  -6.0789  -6.0034  -6.0033  -5.8260  -5.8260  -5.6611  -5.6611
     0.8484   0.9037   1.4391   1.4630   2.4748   2.5498   4.9931   4.9931
     5.1062   5.2973   5.2973   5.3633   5.6174   5.6175   5.7902   5.7903
     5.9609   6.0128   6.0575   6.0575   6.2947   6.3230   6.3230   6.4160
     6.4435   6.4435   6.5388   6.5654   6.5655   6.7739   7.0446   7.0447
     7.5990   7.6346   7.6346   7.7755   7.7852   7.7852   8.0282   8.0282
     8.1182   8.3368   8.3985   8.3985   8.4171   8.5429   8.5429   8.7547
     8.7547   8.8872   8.8872   8.9804   9.0236   9.0236   9.1393   9.1518
     9.1518   9.2633   9.2633   9.5549   9.5549   9.7260   9.7261  10.1520
    10.2571  10.2572  10.2925  10.3631  10.5079  10.6582  10.8117  10.9053
    10.9053  11.5407  11.5408  12.0812  12.0812  12.2933  12.3066  12.3066
    12.3784  12.4048  12.4547  12.4547  13.2283  13.2283  13.8682  13.8682
    14.4028  14.4028  14.6831  14.7402  16.1706  16.2039  16.2807  16.3428
    16.3663  16.3663  16.4320  16.4320  16.7769  16.7769  16.7964  16.7964
    17.3946  17.3946  17.5178  17.5178  18.5830  19.1651  20.0378  20.3054
    20.7908  20.8811  20.8811  21.0137  21.0853  21.0853  22.3945  22.3946
    22.5196  22.5195  22.7565  22.7607  22.7897  22.7877  22.8859  23.0938

     occupation numbers 
     1.0000   1.0000   1.0000   1.0000   1.0000   1.0000   1.0000   1.0000
     1.0000   1.0000   1.0000   1.0000   1.0000   1.0000   1.0000   1.0000
     1.0000   1.0000   1.0000   1.0000   1.0000   1.0000   1.0000   1.0000
     1.0000   1.0000   1.0000   1.0000   1.0000   1.0000   1.0000   1.0000
     1.0000   1.0000   1.0000   1.0000   1.0000   1.0000   1.0000   1.0000
     1.0000   1.0000   1.0000   1.0000   1.0000   1.0000   1.0000   1.0000
     1.0000   1.0000   1.0000   1.0000   1.0000   1.0000   1.0000   1.0000
     1.0000   1.0000   1.0000   1.0000   1.0000   1.0000   1.0000   1.0000
     1.0000   1.0000   1.0000   1.0000   1.0000   1.0000   1.0000   1.0000
     1.0000   1.0000   1.0000   1.0000   1.0000   1.0000   1.0000   1.0000
     1.0000   1.0000   1.0000   1.0000   1.0000   1.0000   1.0000   1.0000
     1.0000   1.0000   1.0000   1.0000   1.0000   1.0000   1.0000   1.0000
     1.0000   1.0000   1.0000   1.0000   1.0000   1.0000   1.0000   1.0000
     1.0000   1.0000   1.0000   1.0000   1.0000   1.0000   1.0000   1.0000
     1.0000   1.0000   1.0000   1.0000   1.0000   1.0000   1.0000   1.0000
     1.0000   1.0000   1.0000   1.0000   1.0000   1.0000   1.0000   1.0000
     1.0000   1.0000   1.0000   1.0000   1.0000   1.0000   1.0000   1.0000
     1.0000   1.0000   1.0000   1.0000   1.0000   1.0000   1.0000   1.0000
     1.0000   0.9936   0.9936   0.0009   0.0009   0.0000   0.0000   0.0000
     0.0000   0.0000   0.0000   0.0000   0.0000   0.0000   0.0000   0.0000
     0.0000   0.0000   0.0000   0.0000   0.0000   0.0000   0.0000   0.0000
     0.0000   0.0000   0.0000   0.0000   0.0000   0.0000   0.0000   0.0000
     0.0000   0.0000   0.0000   0.0000   0.0000   0.0000   0.0000   0.0000
     0.0000   0.0000   0.0000   0.0000   0.0000   0.0000   0.0000   0.0000
     0.0000   0.0000   0.0000   0.0000   0.0000   0.0000   0.0000   0.0000

          k = 0.0000 0.3849 0.0000 (  5358 PWs)   bands (ev):

   -79.6233 -79.4529 -79.3145 -74.6665 -74.6494 -74.5182 -45.4683 -45.4236
   -45.4139 -45.2745 -45.2647 -45.2638 -45.2052 -45.1035 -45.0937 -40.6698
   -40.6455 -40.6208 -40.6115 -40.6012 -40.5917 -40.5209 -40.4790 -40.4699
   -11.2701 -11.2536 -11.2421 -11.2297 -11.2039 -11.2016 -11.1930 -11.1848
   -11.1755 -11.1710 -11.1547 -11.1514 -11.1460 -11.1397 -11.1340 -11.1210
   -11.1147 -11.1109 -11.1062 -11.1041 -11.0988 -11.0957 -11.0926 -11.0894
   -11.0842 -11.0745 -11.0717 -11.0644 -11.0580 -11.0485  -7.6591  -7.3464
    -7.2329  -6.9116  -6.6929  -6.5387  -6.4605  -6.3934  -6.2819  -6.2598
    -6.1574  -6.1352  -6.0314  -6.0147  -5.8984  -5.8807  -5.7257  -5.6720
     0.9560   1.0428   1.2556   1.5456   1.8112   2.0230   5.0907   5.2935
     5.3254   5.4247   5.4851   5.6503   5.6945   5.7761   5.9177   5.9633
     6.0382   6.1040   6.1419   6.2318   6.3558   6.4338   6.5625   6.5838
     6.7019   6.8315   6.9944   7.0572   7.1859   7.2472   7.2954   7.3792
     7.4176   7.4889   7.5940   7.6949   7.7494   7.8166   7.9232   8.0298
     8.1060   8.1509   8.2381   8.3056   8.3773   8.4641   8.5131   8.5620
     8.5883   8.7090   8.7845   8.8750   8.9543   8.9981   9.0272   9.1069
     9.1630   9.1904   9.2674   9.4078   9.4450   9.5198   9.5280   9.9128
    10.0763  10.1764  10.3024  10.3877  10.5411  10.6465  10.8496  10.9887
    11.0027  11.2503  11.5043  12.0462  12.1081  12.1874  12.2832  12.3661
    12.4146  12.4434  12.5556  12.7054  13.2445  13.3728  13.5333  13.7986
    13.9584  14.3273  14.6751  15.1592  15.1798  15.2905  15.4887  15.6581
    15.7396  15.7816  16.1574  16.6347  16.6785  16.7717  16.8122  16.9525
    17.0812  17.1416  17.2248  17.3249  19.3656  20.1957  20.3372  20.6214
    21.0885  21.2489  21.6394  21.6781  21.8298  22.0841  22.1846  22.2332
    22.3736  22.5802  22.7866  23.1160  23.1736  23.2669  23.3619  23.4053

     occupation numbers 
     1.0000   1.0000   1.0000   1.0000   1.0000   1.0000   1.0000   1.0000
     1.0000   1.0000   1.0000   1.0000   1.0000   1.0000   1.0000   1.0000
     1.0000   1.0000   1.0000   1.0000   1.0000   1.0000   1.0000   1.0000
     1.0000   1.0000   1.0000   1.0000   1.0000   1.0000   1.0000   1.0000
     1.0000   1.0000   1.0000   1.0000   1.0000   1.0000   1.0000   1.0000
     1.0000   1.0000   1.0000   1.0000   1.0000   1.0000   1.0000   1.0000
     1.0000   1.0000   1.0000   1.0000   1.0000   1.0000   1.0000   1.0000
     1.0000   1.0000   1.0000   1.0000   1.0000   1.0000   1.0000   1.0000
     1.0000   1.0000   1.0000   1.0000   1.0000   1.0000   1.0000   1.0000
     1.0000   1.0000   1.0000   1.0000   1.0000   1.0000   1.0000   1.0000
     1.0000   1.0000   1.0000   1.0000   1.0000   1.0000   1.0000   1.0000
     1.0000   1.0000   1.0000   1.0000   1.0000   1.0000   1.0000   1.0000
     1.0000   1.0000   1.0000   1.0000   1.0000   1.0000   1.0000   1.0000
     1.0000   1.0000   1.0000   1.0000   1.0000   1.0000   1.0000   1.0000
     1.0000   1.0000   1.0000   1.0000   1.0000   1.0000   1.0000   1.0000
     1.0000   1.0000   1.0000   1.0000   1.0000   1.0000   1.0000   1.0000
     1.0000   1.0000   1.0000   1.0000   1.0000   1.0000   1.0000   1.0000
     1.0000   1.0000   1.0000   1.0000   1.0000   1.0000   1.0000   1.0000
     1.0000   1.0000   0.9979   0.0029   0.0003   0.0000   0.0000   0.0000
     0.0000   0.0000   0.0000   0.0000   0.0000   0.0000   0.0000   0.0000
     0.0000   0.0000   0.0000   0.0000   0.0000   0.0000   0.0000   0.0000
     0.0000   0.0000   0.0000   0.0000   0.0000   0.0000   0.0000   0.0000
     0.0000   0.0000   0.0000   0.0000   0.0000   0.0000   0.0000   0.0000
     0.0000   0.0000   0.0000   0.0000   0.0000   0.0000   0.0000   0.0000
     0.0000   0.0000   0.0000   0.0000   0.0000   0.0000   0.0000   0.0000

          k = 0.0000 0.3849-0.2004 (  5354 PWs)   bands (ev):

   -79.6231 -79.4527 -79.3143 -74.6664 -74.6492 -74.5180 -45.4720 -45.4188
   -45.4131 -45.2690 -45.2675 -45.2632 -45.2088 -45.0984 -45.0925 -40.6728
   -40.6504 -40.6177 -40.6101 -40.5947 -40.5904 -40.5242 -40.4742 -40.4688
   -11.2726 -11.2447 -11.2439 -11.2261 -11.2183 -11.1998 -11.1949 -11.1822
   -11.1726 -11.1681 -11.1551 -11.1507 -11.1445 -11.1400 -11.1353 -11.1220
   -11.1139 -11.1107 -11.1067 -11.1032 -11.0999 -11.0956 -11.0918 -11.0895
   -11.0849 -11.0743 -11.0718 -11.0654 -11.0577 -11.0480  -7.6347  -7.4557
    -7.0666  -6.9450  -6.7881  -6.5071  -6.4565  -6.4096  -6.2916  -6.1942
    -6.1540  -6.1362  -6.0411  -6.0347  -5.9024  -5.8770  -5.7257  -5.6720
     0.9371   1.0778   1.2495   1.5177   1.8350   2.0169   5.0776   5.2938
     5.3284   5.4917   5.5252   5.6296   5.6793   5.8179   5.8495   5.9188
     6.0423   6.0816   6.1403   6.2320   6.3309   6.4176   6.5919   6.6214
     6.7082   6.8324   6.9341   7.0332   7.1860   7.2297   7.2762   7.4512
     7.4628   7.5373   7.6505   7.7048   7.7769   7.8450   7.8991   8.0005
     8.0327   8.1605   8.2096   8.2896   8.3954   8.4506   8.4950   8.5582
     8.6154   8.7220   8.7680   8.8681   8.9023   8.9946   9.0806   9.1298
     9.1691   9.2486   9.3112   9.3388   9.4011   9.4873   9.5624   9.9369
    10.0560  10.1521  10.2826  10.4487  10.5271  10.6676  10.8773  10.9815
    11.0328  11.2177  11.4950  12.0490  12.1084  12.1843  12.2891  12.3603
    12.4195  12.4482  12.5548  12.7032  13.2562  13.3711  13.5350  13.7873
    13.9622  14.3172  14.7780  15.0197  15.1754  15.2690  15.4040  15.6422
    15.8724  15.9157  16.2832  16.4797  16.6366  16.6761  16.7611  16.9857
    17.0897  17.1675  17.2527  17.3622  19.4300  19.9917  20.3545  20.7233
    21.1125  21.3091  21.6002  21.7016  21.8050  21.8580  22.2829  22.4715
    22.5441  22.6368  22.7454  22.8530  22.9633  23.2805  23.3781  23.5068

     occupation numbers 
     1.0000   1.0000   1.0000   1.0000   1.0000   1.0000   1.0000   1.0000
     1.0000   1.0000   1.0000   1.0000   1.0000   1.0000   1.0000   1.0000
     1.0000   1.0000   1.0000   1.0000   1.0000   1.0000   1.0000   1.0000
     1.0000   1.0000   1.0000   1.0000   1.0000   1.0000   1.0000   1.0000
     1.0000   1.0000   1.0000   1.0000   1.0000   1.0000   1.0000   1.0000
     1.0000   1.0000   1.0000   1.0000   1.0000   1.0000   1.0000   1.0000
     1.0000   1.0000   1.0000   1.0000   1.0000   1.0000   1.0000   1.0000
     1.0000   1.0000   1.0000   1.0000   1.0000   1.0000   1.0000   1.0000
     1.0000   1.0000   1.0000   1.0000   1.0000   1.0000   1.0000   1.0000
     1.0000   1.0000   1.0000   1.0000   1.0000   1.0000   1.0000   1.0000
     1.0000   1.0000   1.0000   1.0000   1.0000   1.0000   1.0000   1.0000
     1.0000   1.0000   1.0000   1.0000   1.0000   1.0000   1.0000   1.0000
     1.0000   1.0000   1.0000   1.0000   1.0000   1.0000   1.0000   1.0000
     1.0000   1.0000   1.0000   1.0000   1.0000   1.0000   1.0000   1.0000
     1.0000   1.0000   1.0000   1.0000   1.0000   1.0000   1.0000   1.0000
     1.0000   1.0000   1.0000   1.0000   1.0000   1.0000   1.0000   1.0000
     1.0000   1.0000   1.0000   1.0000   1.0000   1.0000   1.0000   1.0000
     1.0000   1.0000   1.0000   1.0000   1.0000   1.0000   1.0000   1.0000
     1.0000   1.0000   0.9985   0.0026   0.0003   0.0000   0.0000   0.0000
     0.0000   0.0000   0.0000   0.0000   0.0000   0.0000   0.0000   0.0000
     0.0000   0.0000   0.0000   0.0000   0.0000   0.0000   0.0000   0.0000
     0.0000   0.0000   0.0000   0.0000   0.0000   0.0000   0.0000   0.0000
     0.0000   0.0000   0.0000   0.0000   0.0000   0.0000   0.0000   0.0000
     0.0000   0.0000   0.0000   0.0000   0.0000   0.0000   0.0000   0.0000
     0.0000   0.0000   0.0000   0.0000   0.0000   0.0000   0.0000   0.0000

          k = 0.3333 0.5774 0.0000 (  5370 PWs)   bands (ev):

   -79.6240 -79.4536 -79.3152 -74.6671 -74.6500 -74.5188 -45.4713 -45.4222
   -45.4221 -45.2726 -45.2723 -45.2663 -45.2084 -45.1020 -45.1017 -40.6719
   -40.6505 -40.6200 -40.6175 -40.5991 -40.5990 -40.5235 -40.4776 -40.4775
   -11.2447 -11.2421 -11.2353 -11.2349 -11.2261 -11.2113 -11.1881 -11.1757
   -11.1654 -11.1615 -11.1608 -11.1481 -11.1436 -11.1353 -11.1295 -11.1272
   -11.1153 -11.1113 -11.1084 -11.1049 -11.1031 -11.0955 -11.0930 -11.0926
   -11.0883 -11.0774 -11.0741 -11.0708 -11.0605 -11.0575  -7.1820  -7.1636
    -7.1222  -7.0167  -6.8643  -6.8261  -6.4602  -6.4551  -6.4538  -6.2292
    -6.1592  -6.1169  -6.1016  -6.0447  -6.0351  -5.7896  -5.7580  -5.7098
     1.2812   1.3153   1.3375   1.3907   1.4142   1.4672   5.2156   5.2327
     5.3541   5.5039   5.6847   5.6907   5.7951   5.8729   5.9430   6.1306
     6.1539   6.2269   6.3423   6.3724   6.4540   6.6581   6.7101   6.8093
     6.8187   6.8644   6.9632   7.1175   7.1711   7.2022   7.3011   7.3333
     7.3782   7.5195   7.5251   7.6992   7.8288   7.8753   7.8832   7.9445
     8.0137   8.0488   8.2485   8.2875   8.3614   8.4184   8.4573   8.4974
     8.5665   8.6618   8.7411   8.7588   8.8171   8.8830   9.1521   9.1885
     9.2112   9.2865   9.3327   9.3485   9.4839   9.5295   9.5404  10.0427
    10.0511  10.2363  10.3439  10.3470  10.3713  10.5890  10.8136  10.8436
    10.9753  11.2291  11.2337  12.1089  12.1372  12.1481  12.2929  12.3632
    12.4751  12.5800  12.6091  12.6198  13.2520  13.3394  13.4951  13.9176
    13.9589  13.9680  14.7731  14.7747  14.7950  15.1293  15.1463  15.1756
    15.9218  15.9967  16.0107  16.2460  16.3349  16.3377  16.8404  16.8448
    16.9205  16.9754  17.1279  17.1980  20.3622  20.4367  20.5945  21.3262
    21.3531  21.3563  21.8104  21.8126  21.8231  22.2382  22.2644  22.3863
    22.6554  22.6981  22.7288  22.9564  23.0040  23.0642  23.2083  23.2847

     occupation numbers 
     1.0000   1.0000   1.0000   1.0000   1.0000   1.0000   1.0000   1.0000
     1.0000   1.0000   1.0000   1.0000   1.0000   1.0000   1.0000   1.0000
     1.0000   1.0000   1.0000   1.0000   1.0000   1.0000   1.0000   1.0000
     1.0000   1.0000   1.0000   1.0000   1.0000   1.0000   1.0000   1.0000
     1.0000   1.0000   1.0000   1.0000   1.0000   1.0000   1.0000   1.0000
     1.0000   1.0000   1.0000   1.0000   1.0000   1.0000   1.0000   1.0000
     1.0000   1.0000   1.0000   1.0000   1.0000   1.0000   1.0000   1.0000
     1.0000   1.0000   1.0000   1.0000   1.0000   1.0000   1.0000   1.0000
     1.0000   1.0000   1.0000   1.0000   1.0000   1.0000   1.0000   1.0000
     1.0000   1.0000   1.0000   1.0000   1.0000   1.0000   1.0000   1.0000
     1.0000   1.0000   1.0000   1.0000   1.0000   1.0000   1.0000   1.0000
     1.0000   1.0000   1.0000   1.0000   1.0000   1.0000   1.0000   1.0000
     1.0000   1.0000   1.0000   1.0000   1.0000   1.0000   1.0000   1.0000
     1.0000   1.0000   1.0000   1.0000   1.0000   1.0000   1.0000   1.0000
     1.0000   1.0000   1.0000   1.0000   1.0000   1.0000   1.0000   1.0000
     1.0000   1.0000   1.0000   1.0000   1.0000   1.0000   1.0000   1.0000
     1.0000   1.0000   1.0000   1.0000   1.0000   1.0000   1.0000   1.0000
     1.0000   1.0000   1.0000   1.0000   1.0000   1.0000   1.0000   1.0000
     1.0000   1.0000   1.0000   0.0003   0.0001   0.0001   0.0000   0.0000
     0.0000   0.0000   0.0000   0.0000   0.0000   0.0000   0.0000   0.0000
     0.0000   0.0000   0.0000   0.0000   0.0000   0.0000   0.0000   0.0000
     0.0000   0.0000   0.0000   0.0000   0.0000   0.0000   0.0000   0.0000
     0.0000   0.0000   0.0000   0.0000   0.0000   0.0000   0.0000   0.0000
     0.0000   0.0000   0.0000   0.0000   0.0000   0.0000   0.0000   0.0000
     0.0000   0.0000   0.0000   0.0000   0.0000   0.0000   0.0000   0.0000

          k = 0.3333 0.5774-0.2004 (  5322 PWs)   bands (ev):

   -79.6220 -79.4517 -79.3132 -74.6655 -74.6483 -74.5171 -45.4616 -45.4131
   -45.4129 -45.2639 -45.2636 -45.2570 -45.1990 -45.0931 -45.0929 -40.6626
   -40.6411 -40.6109 -40.6097 -40.5915 -40.5910 -40.5149 -40.4694 -40.4692
   -11.2441 -11.2408 -11.2363 -11.2336 -11.2261 -11.2143 -11.1785 -11.1715
   -11.1689 -11.1649 -11.1630 -11.1495 -11.1421 -11.1348 -11.1265 -11.1247
   -11.1152 -11.1137 -11.1062 -11.1027 -11.1020 -11.0958 -11.0928 -11.0928
   -11.0870 -11.0766 -11.0735 -11.0706 -11.0600 -11.0570  -7.1795  -7.1609
    -7.1108  -7.0334  -6.8745  -6.8395  -6.4247  -6.4065  -6.3879  -6.3179
    -6.2546  -6.1896  -6.0383  -6.0010  -5.9908  -5.7962  -5.7641  -5.7154
     1.2890   1.3216   1.3496   1.3848   1.4044   1.4631   5.2302   5.2441
     5.3661   5.5128   5.6972   5.7143   5.8476   5.9405   5.9409   6.1124
     6.1150   6.2883   6.3000   6.3908   6.4073   6.5944   6.7508   6.7581
     6.8450   6.8593   6.8686   7.0971   7.1116   7.1237   7.3793   7.5140
     7.5756   7.6290   7.6323   7.6718   7.7310   7.8177   7.8599   7.9893
     8.0827   8.0885   8.1913   8.2358   8.2384   8.4232   8.4334   8.4970
     8.5899   8.6689   8.7235   8.8235   8.9413   8.9465   9.0800   9.1294
     9.1760   9.2985   9.3489   9.3987   9.5063   9.5396   9.5582  10.0277
    10.0324  10.2691  10.3530  10.3628  10.3710  10.6087  10.8224  10.8505
    10.9917  11.2565  11.2623  12.1083  12.1512  12.1710  12.3070  12.3779
    12.4848  12.5875  12.6301  12.6388  13.2645  13.3463  13.5235  13.9233
    13.9806  13.9994  14.8413  14.8443  14.8618  14.9711  14.9800  15.0198
    16.1933  16.1986  16.2018  16.2069  16.2631  16.3042  16.8310  16.8748
    16.8808  16.9705  17.0021  17.0693  20.3710  20.4502  20.6048  21.3264
    21.3709  21.3794  21.9579  21.9637  21.9815  22.1132  22.1293  22.1792
    22.6798  22.7310  22.7779  22.8575  22.8803  22.9332  23.5369  23.5490

     occupation numbers 
     1.0000   1.0000   1.0000   1.0000   1.0000   1.0000   1.0000   1.0000
     1.0000   1.0000   1.0000   1.0000   1.0000   1.0000   1.0000   1.0000
     1.0000   1.0000   1.0000   1.0000   1.0000   1.0000   1.0000   1.0000
     1.0000   1.0000   1.0000   1.0000   1.0000   1.0000   1.0000   1.0000
     1.0000   1.0000   1.0000   1.0000   1.0000   1.0000   1.0000   1.0000
     1.0000   1.0000   1.0000   1.0000   1.0000   1.0000   1.0000   1.0000
     1.0000   1.0000   1.0000   1.0000   1.0000   1.0000   1.0000   1.0000
     1.0000   1.0000   1.0000   1.0000   1.0000   1.0000   1.0000   1.0000
     1.0000   1.0000   1.0000   1.0000   1.0000   1.0000   1.0000   1.0000
     1.0000   1.0000   1.0000   1.0000   1.0000   1.0000   1.0000   1.0000
     1.0000   1.0000   1.0000   1.0000   1.0000   1.0000   1.0000   1.0000
     1.0000   1.0000   1.0000   1.0000   1.0000   1.0000   1.0000   1.0000
     1.0000   1.0000   1.0000   1.0000   1.0000   1.0000   1.0000   1.0000
     1.0000   1.0000   1.0000   1.0000   1.0000   1.0000   1.0000   1.0000
     1.0000   1.0000   1.0000   1.0000   1.0000   1.0000   1.0000   1.0000
     1.0000   1.0000   1.0000   1.0000   1.0000   1.0000   1.0000   1.0000
     1.0000   1.0000   1.0000   1.0000   1.0000   1.0000   1.0000   1.0000
     1.0000   1.0000   1.0000   1.0000   1.0000   1.0000   1.0000   1.0000
     1.0000   1.0000   1.0000   0.0003   0.0001   0.0000   0.0000   0.0000
     0.0000   0.0000   0.0000   0.0000   0.0000   0.0000   0.0000   0.0000
     0.0000   0.0000   0.0000   0.0000   0.0000   0.0000   0.0000   0.0000
     0.0000   0.0000   0.0000   0.0000   0.0000   0.0000   0.0000   0.0000
     0.0000   0.0000   0.0000   0.0000   0.0000   0.0000   0.0000   0.0000
     0.0000   0.0000   0.0000   0.0000   0.0000   0.0000   0.0000   0.0000
     0.0000   0.0000   0.0000   0.0000   0.0000   0.0000   0.0000   0.0000

     the Fermi energy is    11.7804 ev

!    total energy              =   -3193.12561587 Ry
     estimated scf accuracy    <       0.00051619 Ry
     smearing contrib. (-TS)   =      -0.00023725 Ry
     internal energy E=F+TS    =   -3193.12537863 Ry

     The total energy is F=E-TS. E is the sum of the following terms:
     one-electron contribution =   -1311.09073094 Ry
     hartree contribution      =     840.20844289 Ry
     xc contribution           =    -694.59395662 Ry
     ewald contribution        =   -2027.64913396 Ry

     total magnetization       =     0.00 Bohr mag/cell
     absolute magnetization    =    27.62 Bohr mag/cell

     convergence has been achieved in  15 iterations

     Writing output data file /home/aldair1809/Documentos/QE/4BFO/UHUBBARD/temp/kpoints_ecutwfc_3.in/bifeo3-scf.save/

     init_run     :     34.48s CPU     35.03s WALL (       1 calls)
     electrons    :   1759.72s CPU   1788.21s WALL (       1 calls)

     Called by init_run:
     wfcinit      :     33.11s CPU     33.55s WALL (       1 calls)
     wfcinit:atom :      0.05s CPU      0.05s WALL (      12 calls)
     wfcinit:wfcr :     32.63s CPU     33.05s WALL (      12 calls)
     potinit      :      0.27s CPU      0.28s WALL (       1 calls)
     hinit0       :      0.64s CPU      0.65s WALL (       1 calls)

     Called by electrons:
     c_bands      :   1633.20s CPU   1659.11s WALL (      15 calls)
     sum_band     :    119.48s CPU    122.00s WALL (      15 calls)
     v_of_rho     :      1.02s CPU      1.05s WALL (      16 calls)
     v_h          :      0.03s CPU      0.03s WALL (      16 calls)
     v_xc         :      0.99s CPU      1.02s WALL (      16 calls)
     newd         :      6.24s CPU      6.34s WALL (      16 calls)
     mix_rho      :      0.18s CPU      0.19s WALL (      15 calls)

     Called by c_bands:
     init_us_2    :      2.35s CPU      2.37s WALL (     372 calls)
     ccgdiagg     :   1251.50s CPU   1273.51s WALL (     180 calls)
     wfcrot       :    412.22s CPU    416.53s WALL (     180 calls)

     Called by sum_band:
     sum_band:wei :      0.03s CPU      0.03s WALL (      15 calls)
     sum_band:loo :    111.41s CPU    113.83s WALL (      15 calls)
     sum_band:buf :      0.38s CPU      0.39s WALL (     180 calls)
     sum_band:ini :      1.12s CPU      1.12s WALL (     180 calls)
     sum_band:cal :     80.17s CPU     80.78s WALL (     180 calls)
     sum_band:bec :      0.96s CPU      0.96s WALL (     180 calls)
     addusdens    :      7.44s CPU      7.53s WALL (      15 calls)
     addusd:skk   :      0.03s CPU      0.03s WALL (      60 calls)
     addusd:dgemm :      3.56s CPU      3.61s WALL (     120 calls)
     addusd:qvan2 :      3.75s CPU      3.78s WALL (     120 calls)

     Called by *cgdiagg:
     h_psi        :    745.95s CPU    763.76s WALL (   78954 calls)
     s_psi        :    449.30s CPU    452.50s WALL (  157728 calls)

     Called by h_psi:
     h_psi:calbec :    282.15s CPU    288.47s WALL (   78954 calls)
     vloc_psi     :    191.35s CPU    201.50s WALL (   78954 calls)
     add_vuspsi   :    270.34s CPU    271.84s WALL (   78954 calls)
     hs_1psi      :    712.16s CPU    727.77s WALL (   78774 calls)
     s_1psi       :    377.11s CPU    381.83s WALL (   78774 calls)

     General routines
     calbec       :    554.59s CPU    565.35s WALL (  157908 calls)
     fft          :      0.41s CPU      0.44s WALL (     334 calls)
     ffts         :      0.04s CPU      0.04s WALL (      30 calls)
     fftw         :    199.32s CPU    210.35s WALL (  265644 calls)

     Parallel routines
     fft_scatt_xy :     18.96s CPU     20.13s WALL (  266008 calls)
     fft_scatt_yz :     40.99s CPU     44.00s WALL (  266008 calls)

     PWSCF        :  29m54.82s CPU  30m24.25s WALL


   This run was terminated on:  21:37:52  29Sep2024            

=------------------------------------------------------------------------------=
   JOB DONE.
=------------------------------------------------------------------------------=
