
     Program PWSCF v.6.7MaX starts on 30Sep2024 at  8:18:48 

     This program is part of the open-source Quantum ESPRESSO suite
     for quantum simulation of materials; please cite
         "P. Giannozzi et al., J. Phys.:Condens. Matter 21 395502 (2009);
         "P. Giannozzi et al., J. Phys.:Condens. Matter 29 465901 (2017);
          URL http://www.quantum-espresso.org", 
     in publications or presentations arising from this work. More details at
     http://www.quantum-espresso.org/quote

     Parallel version (MPI), running on     4 processors

     MPI processes distributed on     1 nodes
     R & G space division:  proc/nbgrp/npool/nimage =       4
     Waiting for input...
     Reading input from standard input

     Current dimensions of program PWSCF are:
     Max number of different atomic species (ntypx) = 10
     Max number of k-points (npk) =  40000
     Max angular momentum in pseudopotentials (lmaxx) =  3
     Message from routine input:
     WARNING: "startingwfc" set to atomic+random may spoil restart
     Message from routine input:
     WARNING: "startingpot" set to random may spoil restart

     Subspace diagonalization in iterative solution of the eigenvalue problem:
     one sub-group per band group will be used
     scalapack distributed-memory algorithm (size of sub-group:  2*  2 procs)

     Message from routine setup:
     using ibrav=0 with symmetry is DISCOURAGED, use correct ibrav instead

     Parallelization info
     --------------------
     sticks:   dense  smooth     PW     G-vecs:    dense   smooth      PW
     Min         191     191     55                10703    10703    1685
     Max         193     193     57                10706    10706    1689
     Sum         769     769    223                42815    42815    6747



     bravais-lattice index     =            0
     lattice parameter (alat)  =      10.5468  a.u.
     unit-cell volume          =    2535.5110 (a.u.)^3
     number of atoms/cell      =           30
     number of atomic types    =            4
     number of electrons       =       294.00
     number of Kohn-Sham states=          200
     kinetic-energy cutoff     =      25.0000  Ry
     charge density cutoff     =     100.0000  Ry
     scf convergence threshold =      1.0E-03
     mixing beta               =       0.2000
     number of iterations used =            8  plain     mixing
     Exchange-correlation=  SLA  PW   PBX  PBC
                           (   1   4   3   4   0   0   0)

     celldm(1)=  10.546849  celldm(2)=   0.000000  celldm(3)=   0.000000
     celldm(4)=   0.000000  celldm(5)=   0.000000  celldm(6)=   0.000000

     crystal axes: (cart. coord. in units of alat)
               a(1) = (   1.000000  -0.000000  -0.000000 )  
               a(2) = (  -0.500000   0.866025  -0.000000 )  
               a(3) = (   0.000000  -0.000000   2.495552 )  

     reciprocal axes: (cart. coord. in units 2 pi/alat)
               b(1) = (  1.000000  0.577350  0.000000 )  
               b(2) = (  0.000000  1.154701  0.000000 )  
               b(3) = (  0.000000  0.000000  0.400713 )  


     PseudoPot. # 1 for O  read from file:
     /home/aldair1809/Programas/QE/q-e-qe-7.3/pseudo/o_pbe_v1.2.uspp.F.UPF
     MD5 check sum: 734c27235a0248c51dbae37a1fbe46ec
     Pseudo is Ultrasoft + core correction, Zval =  6.0
     Generated by new atomic code, or converted to UPF format
     Using radial grid of  737 points,  5 beta functions with: 
                l(1) =   0
                l(2) =   0
                l(3) =   1
                l(4) =   1
                l(5) =   2
     Q(r) pseudized with  8 coefficients,  rinner =    0.900   0.900   0.900
                                                       0.900   0.900

     PseudoPot. # 2 for Bi read from file:
     /home/aldair1809/Programas/QE/q-e-qe-7.3/pseudo/bi_pbe_v1.uspp.F.UPF
     MD5 check sum: cceb9f28ec65b6d7ff33140f5b0b1758
     Pseudo is Ultrasoft + core correction, Zval = 15.0
     Generated by new atomic code, or converted to UPF format
     Using radial grid of  899 points,  6 beta functions with: 
                l(1) =   0
                l(2) =   0
                l(3) =   1
                l(4) =   1
                l(5) =   2
                l(6) =   2
     Q(r) pseudized with  6 coefficients,  rinner =    1.000   1.000   1.000
                                                       1.000   1.000

     PseudoPot. # 3 for Fe read from file:
     /home/aldair1809/Programas/QE/q-e-qe-7.3/pseudo/fe_pbe_v1.5.uspp.F.UPF
     MD5 check sum: a130daea23fe5165f5d574ae7f82ed95
     Pseudo is Ultrasoft + core correction, Zval = 16.0
     Generated by new atomic code, or converted to UPF format
     Using radial grid of  861 points,  6 beta functions with: 
                l(1) =   0
                l(2) =   0
                l(3) =   1
                l(4) =   1
                l(5) =   2
                l(6) =   2
     Q(r) pseudized with  8 coefficients,  rinner =    1.000   1.000   1.000
                                                       1.000   1.000

     PseudoPot. # 4 for Fe read from file:
     /home/aldair1809/Programas/QE/q-e-qe-7.3/pseudo/fe_pbe_v1.5.uspp.F.UPF
     MD5 check sum: a130daea23fe5165f5d574ae7f82ed95
     Pseudo is Ultrasoft + core correction, Zval = 16.0
     Generated by new atomic code, or converted to UPF format
     Using radial grid of  861 points,  6 beta functions with: 
                l(1) =   0
                l(2) =   0
                l(3) =   1
                l(4) =   1
                l(5) =   2
                l(6) =   2
     Q(r) pseudized with  8 coefficients,  rinner =    1.000   1.000   1.000
                                                       1.000   1.000

     atomic species   valence    mass     pseudopotential
        O              6.00    15.99940     O ( 1.00)
        Bi            15.00   208.98040     Bi( 1.00)
        Fe1           16.00    55.84500     Fe( 1.00)
        Fe2           16.00    55.84500     Fe( 1.00)

     Starting magnetic structure 
     atomic species   magnetization
        O            0.000
        Bi           0.000
        Fe1         -0.800
        Fe2          0.800

      3 Sym. Ops. (no inversion) found


                                    s                        frac. trans.

      isym =  1     identity                                     

 cryst.   s( 1) = (     1          0          0      )
                  (     0          1          0      )
                  (     0          0          1      )

 cart.    s( 1) = (  1.0000000 -0.0000000  0.0000000 )
                  (  0.0000000  1.0000000  0.0000000 )
                  (  0.0000000  0.0000000  1.0000000 )


      isym =  2     120 deg rotation - cryst. axis [0,0,1]       

 cryst.   s( 2) = (     0          1          0      )
                  (    -1         -1          0      )
                  (     0          0          1      )

 cart.    s( 2) = ( -0.5000000 -0.8660254  0.0000000 )
                  (  0.8660254 -0.5000000  0.0000000 )
                  (  0.0000000  0.0000000  1.0000000 )


      isym =  3     120 deg rotation - cryst. axis [0,0,-1]      

 cryst.   s( 3) = (    -1         -1          0      )
                  (     1          0          0      )
                  (     0          0          1      )

 cart.    s( 3) = ( -0.5000000  0.8660254  0.0000000 )
                  ( -0.8660254 -0.5000000  0.0000000 )
                  (  0.0000000  0.0000000  1.0000000 )


   Cartesian axes

     site n.     atom                  positions (alat units)
         1           Fe1 tau(   1) = (   0.0000000   0.0000000   1.9384582  )
         2           Fe1 tau(   2) = (  -0.0000005   0.5773506   2.3615556  )
         3           Fe1 tau(   3) = (   0.5000005   0.2886748   1.5200787  )
         4           Fe2 tau(   4) = (   0.5000005   0.2886748   0.2722626  )
         5           Fe2 tau(   5) = (   0.0000000   0.0000000   0.6907071  )
         6           Fe2 tau(   6) = (  -0.0000005   0.5773506   1.1137452  )
         7           Bi  tau(   7) = (   0.5000005   0.2886748   2.0843143  )
         8           Bi  tau(   8) = (  -0.0000005   0.5773506   1.6713980  )
         9           Bi  tau(   9) = (  -0.0000005   0.5773506   0.4235448  )
        10           Bi  tau(  10) = (   0.0000000   0.0000000   0.0002821  )
        11           Bi  tau(  11) = (   0.0000000   0.0000000   1.2481025  )
        12           Bi  tau(  12) = (   0.5000005   0.2886748   0.8364865  )
        13           O   tau(  13) = (  -0.3105904   0.6551932   2.2011299  )
        14           O   tau(  14) = (   0.0878817   0.2694488   2.2011299  )
        15           O   tau(  15) = (   0.2227102   0.8074080   2.2011299  )
        16           O   tau(  16) = (   0.4087504   0.5589755   1.7846473  )
        17           O   tau(  17) = (   0.3115373   0.0745013   1.7846473  )
        18           O   tau(  18) = (   0.7797108   0.2325494   1.7846473  )
        19           O   tau(  19) = (   0.6884743   0.0745026   0.5368244  )
        20           O   tau(  20) = (   0.5912412   0.5589858   0.5368244  )
        21           O   tau(  21) = (   0.2202830   0.2325379   0.5368244  )
        22           O   tau(  22) = (  -0.0823010   0.8482993   0.1166193  )
        23           O   tau(  23) = (  -0.1934983   0.3706010   0.1166193  )
        24           O   tau(  24) = (   0.2757993   0.5131505   0.1166193  )
        25           O   tau(  25) = (   0.1934855   0.3705936   1.3644430  )
        26           O   tau(  26) = (   0.0823138   0.8482919   1.3644430  )
        27           O   tau(  27) = (  -0.2757993   0.5131653   1.3644430  )
        28           O   tau(  28) = (  -0.0878870   0.2694458   0.9533686  )
        29           O   tau(  29) = (   0.3105971   0.6551893   0.9533686  )
        30           O   tau(  30) = (  -0.2227086   0.8074149   0.9533686  )

   Crystallographic axes

     site n.     atom                  positions (cryst. coord.)
         1           Fe1 tau(   1) = (  0.0000000  0.0000000  0.7767652  )
         2           Fe1 tau(   2) = (  0.3333330  0.6666670  0.9463058  )
         3           Fe1 tau(   3) = (  0.6666670  0.3333330  0.6091152  )
         4           Fe2 tau(   4) = (  0.6666670  0.3333330  0.1090991  )
         5           Fe2 tau(   5) = (  0.0000000  0.0000000  0.2767753  )
         6           Fe2 tau(   6) = (  0.3333330  0.6666670  0.4462921  )
         7           Bi  tau(   7) = (  0.6666670  0.3333330  0.8352117  )
         8           Bi  tau(   8) = (  0.3333330  0.6666670  0.6697508  )
         9           Bi  tau(   9) = (  0.3333330  0.6666670  0.1697199  )
        10           Bi  tau(  10) = (  0.0000000  0.0000000  0.0001130  )
        11           Bi  tau(  11) = (  0.0000000  0.0000000  0.5001308  )
        12           Bi  tau(  12) = (  0.6666670  0.3333330  0.3351910  )
        13           O   tau(  13) = (  0.0676856  0.7565520  0.8820212  )
        14           O   tau(  14) = (  0.2434480  0.3111326  0.8820212  )
        15           O   tau(  15) = (  0.6888674  0.9323144  0.8820212  )
        16           O   tau(  16) = (  0.7314750  0.6454493  0.7151312  )
        17           O   tau(  17) = (  0.3545507  0.0860267  0.7151312  )
        18           O   tau(  18) = (  0.9139733  0.2685250  0.7151312  )
        19           O   tau(  19) = (  0.7314884  0.0860282  0.2151125  )
        20           O   tau(  20) = (  0.9139718  0.6454612  0.2151125  )
        21           O   tau(  21) = (  0.3545388  0.2685116  0.2151125  )
        22           O   tau(  22) = (  0.4074649  0.9795317  0.0467309  )
        23           O   tau(  23) = (  0.0204683  0.4279331  0.0467309  )
        24           O   tau(  24) = (  0.5720669  0.5925351  0.0467309  )
        25           O   tau(  25) = (  0.4074478  0.4279246  0.5467499  )
        26           O   tau(  26) = (  0.5720754  0.9795232  0.5467499  )
        27           O   tau(  27) = (  0.0204768  0.5925522  0.5467499  )
        28           O   tau(  28) = (  0.0676775  0.3111292  0.3820271  )
        29           O   tau(  29) = (  0.6888708  0.7565474  0.3820271  )
        30           O   tau(  30) = (  0.2434526  0.9323225  0.3820271  )

     number of k points=    36  Gaussian smearing, width (Ry)=  0.0100
                       cart. coord. in units 2pi/alat
        k(    1) = (   0.0000000   0.0000000   0.0000000), wk =   0.0055556
        k(    2) = (   0.0000000   0.0000000   0.0801426), wk =   0.0111111
        k(    3) = (   0.0000000   0.0000000   0.1602852), wk =   0.0111111
        k(    4) = (   0.0000000   0.1924501   0.0000000), wk =   0.0333333
        k(    5) = (   0.0000000   0.1924501   0.0801426), wk =   0.0333333
        k(    6) = (   0.0000000   0.1924501   0.1602852), wk =   0.0333333
        k(    7) = (   0.0000000   0.3849002   0.0000000), wk =   0.0333333
        k(    8) = (   0.0000000   0.3849002   0.0801426), wk =   0.0333333
        k(    9) = (   0.0000000   0.3849002   0.1602852), wk =   0.0333333
        k(   10) = (   0.0000000  -0.5773503   0.0000000), wk =   0.0166667
        k(   11) = (   0.0000000  -0.5773503   0.0801426), wk =   0.0333333
        k(   12) = (   0.0000000  -0.5773503   0.1602852), wk =   0.0333333
        k(   13) = (   0.1666667   0.2886751   0.0000000), wk =   0.0333333
        k(   14) = (   0.1666667   0.2886751   0.0801426), wk =   0.0333333
        k(   15) = (   0.1666667   0.2886751   0.1602852), wk =   0.0333333
        k(   16) = (   0.1666667   0.4811252   0.0000000), wk =   0.0333333
        k(   17) = (   0.1666667   0.4811252   0.0801426), wk =   0.0333333
        k(   18) = (   0.1666667   0.4811252   0.1602852), wk =   0.0333333
        k(   19) = (   0.3333333   0.5773503   0.0000000), wk =   0.0111111
        k(   20) = (   0.3333333   0.5773503   0.0801426), wk =   0.0111111
        k(   21) = (   0.3333333   0.5773503   0.1602852), wk =   0.0111111
        k(   22) = (  -0.1666667   0.0962250   0.0801426), wk =   0.0333333
        k(   23) = (  -0.1666667   0.0962250   0.1602852), wk =   0.0333333
        k(   24) = (  -0.3333333   0.1924501   0.0801426), wk =   0.0333333
        k(   25) = (  -0.3333333   0.1924501   0.1602852), wk =   0.0333333
        k(   26) = (   0.1666667  -0.2886751  -0.0801426), wk =   0.0333333
        k(   27) = (   0.1666667  -0.2886751  -0.1602852), wk =   0.0333333
        k(   28) = (   0.1666667  -0.4811252   0.0000000), wk =   0.0333333
        k(   29) = (   0.1666667  -0.4811252  -0.0801426), wk =   0.0333333
        k(   30) = (  -0.3333333   0.3849002   0.0801426), wk =   0.0333333
        k(   31) = (  -0.1666667   0.4811252  -0.0801426), wk =   0.0333333
        k(   32) = (   0.1666667  -0.4811252  -0.1602852), wk =   0.0333333
        k(   33) = (  -0.3333333   0.3849002   0.1602852), wk =   0.0333333
        k(   34) = (  -0.1666667   0.4811252  -0.1602852), wk =   0.0333333
        k(   35) = (   0.3333333  -0.5773503  -0.0801426), wk =   0.0111111
        k(   36) = (   0.3333333  -0.5773503  -0.1602852), wk =   0.0111111

                       cryst. coord.
        k(    1) = (   0.0000000   0.0000000   0.0000000), wk =   0.0055556
        k(    2) = (   0.0000000   0.0000000   0.2000000), wk =   0.0111111
        k(    3) = (   0.0000000   0.0000000   0.4000000), wk =   0.0111111
        k(    4) = (   0.0000000   0.1666667   0.0000000), wk =   0.0333333
        k(    5) = (   0.0000000   0.1666667   0.2000000), wk =   0.0333333
        k(    6) = (   0.0000000   0.1666667   0.4000000), wk =   0.0333333
        k(    7) = (   0.0000000   0.3333333   0.0000000), wk =   0.0333333
        k(    8) = (   0.0000000   0.3333333   0.2000000), wk =   0.0333333
        k(    9) = (   0.0000000   0.3333333   0.4000000), wk =   0.0333333
        k(   10) = (   0.0000000  -0.5000000   0.0000000), wk =   0.0166667
        k(   11) = (   0.0000000  -0.5000000   0.2000000), wk =   0.0333333
        k(   12) = (   0.0000000  -0.5000000   0.4000000), wk =   0.0333333
        k(   13) = (   0.1666667   0.1666667   0.0000000), wk =   0.0333333
        k(   14) = (   0.1666667   0.1666667   0.2000000), wk =   0.0333333
        k(   15) = (   0.1666667   0.1666667   0.4000000), wk =   0.0333333
        k(   16) = (   0.1666667   0.3333333   0.0000000), wk =   0.0333333
        k(   17) = (   0.1666667   0.3333333   0.2000000), wk =   0.0333333
        k(   18) = (   0.1666667   0.3333333   0.4000000), wk =   0.0333333
        k(   19) = (   0.3333333   0.3333333   0.0000000), wk =   0.0111111
        k(   20) = (   0.3333333   0.3333333   0.2000000), wk =   0.0111111
        k(   21) = (   0.3333333   0.3333333   0.4000000), wk =   0.0111111
        k(   22) = (  -0.1666667   0.1666667   0.2000000), wk =   0.0333333
        k(   23) = (  -0.1666667   0.1666667   0.4000000), wk =   0.0333333
        k(   24) = (  -0.3333333   0.3333333   0.2000000), wk =   0.0333333
        k(   25) = (  -0.3333333   0.3333333   0.4000000), wk =   0.0333333
        k(   26) = (   0.1666667  -0.3333333  -0.2000000), wk =   0.0333333
        k(   27) = (   0.1666667  -0.3333333  -0.4000000), wk =   0.0333333
        k(   28) = (   0.1666667  -0.5000000   0.0000000), wk =   0.0333333
        k(   29) = (   0.1666667  -0.5000000  -0.2000000), wk =   0.0333333
        k(   30) = (  -0.3333333   0.5000000   0.2000000), wk =   0.0333333
        k(   31) = (  -0.1666667   0.5000000  -0.2000000), wk =   0.0333333
        k(   32) = (   0.1666667  -0.5000000  -0.4000000), wk =   0.0333333
        k(   33) = (  -0.3333333   0.5000000   0.4000000), wk =   0.0333333
        k(   34) = (  -0.1666667   0.5000000  -0.4000000), wk =   0.0333333
        k(   35) = (   0.3333333  -0.6666667  -0.2000000), wk =   0.0111111
        k(   36) = (   0.3333333  -0.6666667  -0.4000000), wk =   0.0111111

     Dense  grid:    42815 G-vectors     FFT dimensions: (  36,  36,  90)

     Dynamical RAM for                 wfc:       4.08 MB

     Dynamical RAM for     wfc (w. buffer):     298.08 MB

     Dynamical RAM for           str. fact:       0.65 MB

     Dynamical RAM for           local pot:       0.00 MB

     Dynamical RAM for          nlocal pot:       9.19 MB

     Dynamical RAM for                qrad:       3.22 MB

     Dynamical RAM for          rho,v,vnew:       2.34 MB

     Dynamical RAM for               rhoin:       0.78 MB

     Dynamical RAM for            rho*nmix:       5.23 MB

     Dynamical RAM for           G-vectors:       0.69 MB

     Dynamical RAM for          h,s,v(r/c):       0.46 MB

     Dynamical RAM for          <psi|beta>:       1.37 MB

     Dynamical RAM for      wfcinit/wfcrot:       9.28 MB

     Dynamical RAM for           addusdens:      33.48 MB

     Estimated static dynamical RAM per process >     322.36 MB

     Estimated max dynamical RAM per process >     355.84 MB

     Estimated total dynamical RAM >       1.39 GB

     Atomic positions and unit cell read from directory:
     /home/aldair1809/Documentos/QE/4BFO/UHUBBARD/temp/kpoints_ecutwfc_6.in/bifeo3-scf.save/


     Check: negative core charge=   -0.000640
     Generating pointlists ...
     new r_m :   0.1458 (alat units)  1.5374 (a.u.) for type    1
     new r_m :   0.1687 (alat units)  1.7788 (a.u.) for type    2
     new r_m :   0.1458 (alat units)  1.5374 (a.u.) for type    3
     new r_m :   0.1458 (alat units)  1.5374 (a.u.) for type    4

     The initial density is read from file :
     /home/aldair1809/Documentos/QE/4BFO/UHUBBARD/temp/kpoints_ecutwfc_6.in/bifeo3-scf.save/charge-density


     negative rho (up, down):  1.113E-01 1.113E-01
     Starting wfcs are  204 randomized atomic wfcs
     Calculation restarted from scf iteration #    12

     total cpu time spent up to now is      154.6 secs

     Self-consistent Calculation

     iteration # 12     ecut=    25.00 Ry     beta= 0.20
     Calculation restarted from kpoint #     4
     CG style diagonalization
     c_bands:  5 eigenvalues not converged
     c_bands:  3 eigenvalues not converged
     c_bands:  4 eigenvalues not converged
     c_bands:  4 eigenvalues not converged
     c_bands:  3 eigenvalues not converged
     c_bands:  2 eigenvalues not converged
     c_bands:  1 eigenvalues not converged
     c_bands:  3 eigenvalues not converged
     c_bands:  1 eigenvalues not converged
     c_bands:  4 eigenvalues not converged
     c_bands:  3 eigenvalues not converged
     c_bands:  2 eigenvalues not converged
     c_bands:  3 eigenvalues not converged
     c_bands:  2 eigenvalues not converged
     c_bands:  3 eigenvalues not converged
     c_bands:  1 eigenvalues not converged
     c_bands:  4 eigenvalues not converged
     c_bands:  1 eigenvalues not converged
     c_bands:  3 eigenvalues not converged
     c_bands:  2 eigenvalues not converged
     c_bands:  3 eigenvalues not converged
     c_bands:  2 eigenvalues not converged
     c_bands:  3 eigenvalues not converged
     c_bands:  2 eigenvalues not converged
     c_bands:  2 eigenvalues not converged
     c_bands:  3 eigenvalues not converged
     c_bands:  1 eigenvalues not converged
     c_bands:  2 eigenvalues not converged
     c_bands:  2 eigenvalues not converged
     c_bands:  3 eigenvalues not converged
     c_bands:  1 eigenvalues not converged
     c_bands:  3 eigenvalues not converged
     c_bands:  4 eigenvalues not converged
     c_bands:  3 eigenvalues not converged
     c_bands:  1 eigenvalues not converged
     c_bands:  5 eigenvalues not converged
     c_bands:  2 eigenvalues not converged
     c_bands:  1 eigenvalues not converged
     c_bands:  1 eigenvalues not converged
     c_bands:  1 eigenvalues not converged
     c_bands:  2 eigenvalues not converged
     c_bands:  3 eigenvalues not converged
     c_bands:  1 eigenvalues not converged
     c_bands:  3 eigenvalues not converged
     c_bands:  3 eigenvalues not converged
     c_bands:  2 eigenvalues not converged
     c_bands:  2 eigenvalues not converged
     c_bands:  3 eigenvalues not converged
     c_bands:  2 eigenvalues not converged
     c_bands:  4 eigenvalues not converged
     c_bands:  2 eigenvalues not converged
     c_bands:  2 eigenvalues not converged
     c_bands:  2 eigenvalues not converged
     c_bands:  3 eigenvalues not converged
     c_bands:  2 eigenvalues not converged
     c_bands:  2 eigenvalues not converged
     c_bands:  2 eigenvalues not converged
     c_bands:  2 eigenvalues not converged
     c_bands:  2 eigenvalues not converged
     c_bands:  2 eigenvalues not converged
     c_bands:  3 eigenvalues not converged
     c_bands:  2 eigenvalues not converged
     c_bands:  1 eigenvalues not converged
     ethr =  7.53E-06,  avg # of iterations = 15.7

     negative rho (up, down):  1.115E-01 1.115E-01

     total cpu time spent up to now is     3270.3 secs

     total energy              =   -3193.11538103 Ry
     estimated scf accuracy    <       0.00671628 Ry

     total magnetization       =    -0.00 Bohr mag/cell
     absolute magnetization    =    27.56 Bohr mag/cell

     iteration # 13     ecut=    25.00 Ry     beta= 0.20
     CG style diagonalization
     c_bands:  3 eigenvalues not converged
     c_bands:  1 eigenvalues not converged
     c_bands:  1 eigenvalues not converged
     c_bands:  1 eigenvalues not converged
     c_bands:  2 eigenvalues not converged
     c_bands:  1 eigenvalues not converged
     c_bands:  1 eigenvalues not converged
     c_bands:  2 eigenvalues not converged
     ethr =  2.28E-06,  avg # of iterations =  3.6

     negative rho (up, down):  1.116E-01 1.116E-01

     total cpu time spent up to now is     3979.2 secs

     total energy              =   -3193.11490053 Ry
     estimated scf accuracy    <       0.00413913 Ry

     total magnetization       =     0.00 Bohr mag/cell
     absolute magnetization    =    27.56 Bohr mag/cell

     iteration # 14     ecut=    25.00 Ry     beta= 0.20
     CG style diagonalization
     c_bands:  2 eigenvalues not converged
     ethr =  1.41E-06,  avg # of iterations =  3.0

     negative rho (up, down):  1.117E-01 1.117E-01

     Magnetic moment per site:
     atom:    1    charge:   13.0421    magn:   -3.7183    constr:    0.0000
     atom:    2    charge:   13.0487    magn:   -3.6036    constr:    0.0000
     atom:    3    charge:   13.0651    magn:   -3.5937    constr:    0.0000
     atom:    4    charge:   13.0654    magn:    3.5936    constr:    0.0000
     atom:    5    charge:   13.0446    magn:    3.7167    constr:    0.0000
     atom:    6    charge:   13.0487    magn:    3.6038    constr:    0.0000
     atom:    7    charge:   10.4865    magn:   -0.0163    constr:    0.0000
     atom:    8    charge:   10.4858    magn:   -0.0128    constr:    0.0000
     atom:    9    charge:   10.4858    magn:    0.0127    constr:    0.0000
     atom:   10    charge:   10.4888    magn:   -0.0040    constr:    0.0000
     atom:   11    charge:   10.4887    magn:    0.0039    constr:    0.0000
     atom:   12    charge:   10.4865    magn:    0.0162    constr:    0.0000
     atom:   13    charge:    5.3987    magn:   -0.2157    constr:    0.0000
     atom:   14    charge:    5.3987    magn:   -0.2157    constr:    0.0000
     atom:   15    charge:    5.3987    magn:   -0.2157    constr:    0.0000
     atom:   16    charge:    5.3964    magn:   -0.2286    constr:    0.0000
     atom:   17    charge:    5.3964    magn:   -0.2286    constr:    0.0000
     atom:   18    charge:    5.3964    magn:   -0.2286    constr:    0.0000
     atom:   19    charge:    5.3964    magn:    0.2291    constr:    0.0000
     atom:   20    charge:    5.3964    magn:    0.2291    constr:    0.0000
     atom:   21    charge:    5.3964    magn:    0.2291    constr:    0.0000
     atom:   22    charge:    5.3892    magn:    0.0714    constr:    0.0000
     atom:   23    charge:    5.3892    magn:    0.0714    constr:    0.0000
     atom:   24    charge:    5.3892    magn:    0.0714    constr:    0.0000
     atom:   25    charge:    5.3891    magn:   -0.0708    constr:    0.0000
     atom:   26    charge:    5.3891    magn:   -0.0708    constr:    0.0000
     atom:   27    charge:    5.3891    magn:   -0.0708    constr:    0.0000
     atom:   28    charge:    5.3990    magn:    0.2162    constr:    0.0000
     atom:   29    charge:    5.3990    magn:    0.2162    constr:    0.0000
     atom:   30    charge:    5.3990    magn:    0.2162    constr:    0.0000

     total cpu time spent up to now is     4573.8 secs

     End of self-consistent calculation

 ------ SPIN UP ------------


          k = 0.0000 0.0000 0.0000 (  5411 PWs)   bands (ev):

   -79.6551 -79.4863 -79.3541 -74.6631 -74.6515 -74.5266 -45.5025 -45.4564
   -45.4564 -45.3083 -45.3083 -45.2994 -45.2477 -45.1439 -45.1439 -40.6730
   -40.6537 -40.6225 -40.6225 -40.6064 -40.6064 -40.5353 -40.4913 -40.4912
   -11.2592 -11.2592 -11.2210 -11.2210 -11.2017 -11.2017 -11.1722 -11.1550
   -11.1462 -11.1462 -11.1429 -11.1429 -11.1309 -11.1309 -11.1120 -11.0948
   -11.0870 -11.0870 -11.0807 -11.0807 -11.0749 -11.0749 -11.0707 -11.0641
   -11.0641 -11.0550 -11.0424 -11.0424 -11.0264 -11.0264  -7.9875  -7.6096
    -7.5118  -6.7571  -6.7065  -6.3119  -6.3118  -6.1871  -6.1871  -6.1843
    -6.0840  -6.0839  -5.9892  -5.9891  -5.8299  -5.8299  -5.6611  -5.6610
     0.8174   1.0558   1.1332   1.9047   2.0380   2.7889   4.9453   4.9453
     5.0629   5.4413   5.4413   5.5447   5.5447   5.5448   5.7309   5.7397
     5.7398   5.9510   6.0145   6.0145   6.2059   6.2060   6.2692   6.4276
     6.4276   6.4301   6.5244   6.7387   6.7387   7.0264   7.0264   7.1762
     7.3364   7.6173   7.6173   7.7297   7.8534   7.8534   7.9674   7.9674
     8.1619   8.2983   8.3434   8.3434   8.5135   8.5135   8.5234   8.6431
     8.6645   8.6645   8.8240   8.8241   8.9763   8.9763   9.3167   9.3168
     9.3666   9.3666   9.3674   9.4244   9.4245   9.7697   9.7698  10.0924
    10.1912  10.1912  10.2565  10.4308  10.5252  10.6597  10.7333  10.8878
    10.8879  11.5282  11.5283  12.0629  12.0629  12.2851  12.2895  12.2895
    12.3501  12.3728  12.4495  12.4495  13.2181  13.2181  13.8430  13.8431
    14.3932  14.3933  15.0631  15.1785  15.2841  15.3305  16.3757  16.3757
    16.5128  16.5128  16.5561  16.5561  16.8499  16.9103  17.1035  17.1035
    17.1793  17.1794  17.5919  17.5919  18.2996  19.6022  19.8243  19.9938
    20.6965  20.6965  20.9819  21.0600  21.6998  21.6999  21.8073  21.8074
    22.1317  22.1318  22.8653  23.0361  23.0551  23.0552  23.2101  23.2807

     occupation numbers 
     1.0000   1.0000   1.0000   1.0000   1.0000   1.0000   1.0000   1.0000
     1.0000   1.0000   1.0000   1.0000   1.0000   1.0000   1.0000   1.0000
     1.0000   1.0000   1.0000   1.0000   1.0000   1.0000   1.0000   1.0000
     1.0000   1.0000   1.0000   1.0000   1.0000   1.0000   1.0000   1.0000
     1.0000   1.0000   1.0000   1.0000   1.0000   1.0000   1.0000   1.0000
     1.0000   1.0000   1.0000   1.0000   1.0000   1.0000   1.0000   1.0000
     1.0000   1.0000   1.0000   1.0000   1.0000   1.0000   1.0000   1.0000
     1.0000   1.0000   1.0000   1.0000   1.0000   1.0000   1.0000   1.0000
     1.0000   1.0000   1.0000   1.0000   1.0000   1.0000   1.0000   1.0000
     1.0000   1.0000   1.0000   1.0000   1.0000   1.0000   1.0000   1.0000
     1.0000   1.0000   1.0000   1.0000   1.0000   1.0000   1.0000   1.0000
     1.0000   1.0000   1.0000   1.0000   1.0000   1.0000   1.0000   1.0000
     1.0000   1.0000   1.0000   1.0000   1.0000   1.0000   1.0000   1.0000
     1.0000   1.0000   1.0000   1.0000   1.0000   1.0000   1.0000   1.0000
     1.0000   1.0000   1.0000   1.0000   1.0000   1.0000   1.0000   1.0000
     1.0000   1.0000   1.0000   1.0000   1.0000   1.0000   1.0000   1.0000
     1.0000   1.0000   1.0000   1.0000   1.0000   1.0000   1.0000   1.0000
     1.0000   1.0000   1.0000   1.0000   1.0000   1.0000   1.0000   1.0000
     1.0000   0.9938   0.9938   0.0011   0.0011   0.0000   0.0000   0.0000
     0.0000   0.0000   0.0000   0.0000   0.0000   0.0000   0.0000   0.0000
     0.0000   0.0000   0.0000   0.0000   0.0000   0.0000   0.0000   0.0000
     0.0000   0.0000   0.0000   0.0000   0.0000   0.0000   0.0000   0.0000
     0.0000   0.0000   0.0000   0.0000   0.0000   0.0000   0.0000   0.0000
     0.0000   0.0000   0.0000   0.0000   0.0000   0.0000   0.0000   0.0000
     0.0000   0.0000   0.0000   0.0000   0.0000   0.0000   0.0000   0.0000

          k = 0.0000 0.0000 0.0801 (  5382 PWs)   bands (ev):

   -79.6538 -79.4850 -79.3528 -74.6620 -74.6504 -74.5255 -45.4912 -45.4533
   -45.4533 -45.3054 -45.3053 -45.2890 -45.2356 -45.1406 -45.1406 -40.6623
   -40.6436 -40.6196 -40.6196 -40.6037 -40.6037 -40.5245 -40.4881 -40.4881
   -11.2578 -11.2577 -11.2277 -11.2276 -11.1926 -11.1924 -11.1717 -11.1546
   -11.1524 -11.1511 -11.1417 -11.1399 -11.1306 -11.1300 -11.1101 -11.0952
   -11.0865 -11.0859 -11.0812 -11.0799 -11.0746 -11.0742 -11.0696 -11.0648
   -11.0635 -11.0543 -11.0417 -11.0412 -11.0267 -11.0266  -7.9776  -7.6880
    -7.4070  -6.9021  -6.5807  -6.3119  -6.3118  -6.2008  -6.1876  -6.1874
    -6.0819  -6.0812  -5.9923  -5.9916  -5.8285  -5.8283  -5.6614  -5.6613
     0.8257   0.9908   1.2268   1.7454   2.2068   2.7420   4.9566   4.9567
     5.0743   5.3803   5.3810   5.4699   5.5612   5.6296   5.6804   5.8332
     5.8401   5.9542   5.9678   6.0909   6.2357   6.2367   6.2942   6.4132
     6.4135   6.4488   6.5250   6.6723   6.7142   7.0093   7.0180   7.0468
     7.4871   7.6082   7.6434   7.7395   7.8176   7.8290   7.9384   8.0581
     8.1586   8.2999   8.3109   8.4349   8.4760   8.5061   8.5330   8.6814
     8.7006   8.7595   8.8337   8.8500   8.9734   9.0323   9.2373   9.2379
     9.3135   9.3138   9.3630   9.4807   9.5003   9.7462   9.7550  10.1136
    10.2011  10.2181  10.2709  10.4120  10.5396  10.6543  10.7798  10.8876
    10.9014  11.5260  11.5417  12.0664  12.0763  12.2971  12.2975  12.3022
    12.3739  12.3849  12.4498  12.4532  13.2184  13.2209  13.8538  13.8556
    14.3971  14.3980  14.8571  14.9427  15.5997  15.6429  16.3727  16.3754
    16.4707  16.4778  16.6251  16.6282  16.7351  16.7813  16.9937  16.9997
    17.2775  17.2848  17.5731  17.5755  18.3816  19.4796  19.7596  20.2745
    20.7341  20.7353  20.7985  21.1252  21.4035  21.4162  22.0630  22.1334
    22.2109  22.2660  22.8725  22.8860  22.9098  23.0620  23.1590  23.2984

     occupation numbers 
     1.0000   1.0000   1.0000   1.0000   1.0000   1.0000   1.0000   1.0000
     1.0000   1.0000   1.0000   1.0000   1.0000   1.0000   1.0000   1.0000
     1.0000   1.0000   1.0000   1.0000   1.0000   1.0000   1.0000   1.0000
     1.0000   1.0000   1.0000   1.0000   1.0000   1.0000   1.0000   1.0000
     1.0000   1.0000   1.0000   1.0000   1.0000   1.0000   1.0000   1.0000
     1.0000   1.0000   1.0000   1.0000   1.0000   1.0000   1.0000   1.0000
     1.0000   1.0000   1.0000   1.0000   1.0000   1.0000   1.0000   1.0000
     1.0000   1.0000   1.0000   1.0000   1.0000   1.0000   1.0000   1.0000
     1.0000   1.0000   1.0000   1.0000   1.0000   1.0000   1.0000   1.0000
     1.0000   1.0000   1.0000   1.0000   1.0000   1.0000   1.0000   1.0000
     1.0000   1.0000   1.0000   1.0000   1.0000   1.0000   1.0000   1.0000
     1.0000   1.0000   1.0000   1.0000   1.0000   1.0000   1.0000   1.0000
     1.0000   1.0000   1.0000   1.0000   1.0000   1.0000   1.0000   1.0000
     1.0000   1.0000   1.0000   1.0000   1.0000   1.0000   1.0000   1.0000
     1.0000   1.0000   1.0000   1.0000   1.0000   1.0000   1.0000   1.0000
     1.0000   1.0000   1.0000   1.0000   1.0000   1.0000   1.0000   1.0000
     1.0000   1.0000   1.0000   1.0000   1.0000   1.0000   1.0000   1.0000
     1.0000   1.0000   1.0000   1.0000   1.0000   1.0000   1.0000   1.0000
     1.0000   0.9942   0.9908   0.0010   0.0007   0.0000   0.0000   0.0000
     0.0000   0.0000   0.0000   0.0000   0.0000   0.0000   0.0000   0.0000
     0.0000   0.0000   0.0000   0.0000   0.0000   0.0000   0.0000   0.0000
     0.0000   0.0000   0.0000   0.0000   0.0000   0.0000   0.0000   0.0000
     0.0000   0.0000   0.0000   0.0000   0.0000   0.0000   0.0000   0.0000
     0.0000   0.0000   0.0000   0.0000   0.0000   0.0000   0.0000   0.0000
     0.0000   0.0000   0.0000   0.0000   0.0000   0.0000   0.0000   0.0000

          k = 0.0000 0.0000 0.1603 (  5406 PWs)   bands (ev):

   -79.6546 -79.4858 -79.3536 -74.6628 -74.6511 -74.5262 -45.4901 -45.4602
   -45.4602 -45.3115 -45.3115 -45.2886 -45.2338 -45.1474 -45.1474 -40.6612
   -40.6427 -40.6276 -40.6276 -40.6080 -40.6080 -40.5232 -40.4944 -40.4943
   -11.2542 -11.2542 -11.2368 -11.2368 -11.1784 -11.1781 -11.1717 -11.1640
   -11.1633 -11.1546 -11.1404 -11.1396 -11.1300 -11.1297 -11.1086 -11.0978
   -11.0857 -11.0849 -11.0820 -11.0809 -11.0743 -11.0739 -11.0698 -11.0648
   -11.0640 -11.0548 -11.0410 -11.0408 -11.0280 -11.0280  -7.9570  -7.7608
    -7.2488  -7.0762  -6.4772  -6.3119  -6.3118  -6.2365  -6.1885  -6.1884
    -6.0779  -6.0776  -5.9969  -5.9966  -5.8264  -5.8264  -5.6620  -5.6620
     0.8493   0.9248   1.3733   1.5503   2.4152   2.6157   4.9804   4.9804
     5.0983   5.3040   5.3047   5.3742   5.5896   5.6187   5.7381   5.8159
     5.9438   5.9979   6.0087   6.0779   6.2902   6.3012   6.3183   6.4073
     6.4082   6.4479   6.5308   6.5667   6.5934   6.8141   7.0207   7.0348
     7.5825   7.6116   7.6396   7.7571   7.7649   7.7763   7.9885   8.0398
     8.1213   8.3238   8.3465   8.4054   8.4196   8.5292   8.5313   8.7324
     8.7459   8.8627   8.8742   8.9367   8.9990   9.0462   9.1494   9.1503
     9.1781   9.2521   9.2870   9.5437   9.5492   9.7232   9.7287  10.1404
    10.2329  10.2441  10.2850  10.3701  10.5115  10.6578  10.8071  10.8839
    10.8941  11.5177  11.5324  12.0686  12.0782  12.2869  12.2923  12.2945
    12.3658  12.3995  12.4408  12.4427  13.2194  13.2195  13.8541  13.8554
    14.3891  14.3892  14.7045  14.7663  16.0280  16.0442  16.3709  16.3726
    16.4394  16.4426  16.4442  16.4727  16.7279  16.7280  16.8553  16.8586
    17.3784  17.3829  17.5302  17.5330  18.5419  19.2124  19.9688  20.3586
    20.7419  20.8382  20.8402  21.0490  21.1385  21.1439  22.2967  22.3327
    22.5423  22.5706  22.6347  22.6595  22.8814  22.9381  23.0877  23.2568

     occupation numbers 
     1.0000   1.0000   1.0000   1.0000   1.0000   1.0000   1.0000   1.0000
     1.0000   1.0000   1.0000   1.0000   1.0000   1.0000   1.0000   1.0000
     1.0000   1.0000   1.0000   1.0000   1.0000   1.0000   1.0000   1.0000
     1.0000   1.0000   1.0000   1.0000   1.0000   1.0000   1.0000   1.0000
     1.0000   1.0000   1.0000   1.0000   1.0000   1.0000   1.0000   1.0000
     1.0000   1.0000   1.0000   1.0000   1.0000   1.0000   1.0000   1.0000
     1.0000   1.0000   1.0000   1.0000   1.0000   1.0000   1.0000   1.0000
     1.0000   1.0000   1.0000   1.0000   1.0000   1.0000   1.0000   1.0000
     1.0000   1.0000   1.0000   1.0000   1.0000   1.0000   1.0000   1.0000
     1.0000   1.0000   1.0000   1.0000   1.0000   1.0000   1.0000   1.0000
     1.0000   1.0000   1.0000   1.0000   1.0000   1.0000   1.0000   1.0000
     1.0000   1.0000   1.0000   1.0000   1.0000   1.0000   1.0000   1.0000
     1.0000   1.0000   1.0000   1.0000   1.0000   1.0000   1.0000   1.0000
     1.0000   1.0000   1.0000   1.0000   1.0000   1.0000   1.0000   1.0000
     1.0000   1.0000   1.0000   1.0000   1.0000   1.0000   1.0000   1.0000
     1.0000   1.0000   1.0000   1.0000   1.0000   1.0000   1.0000   1.0000
     1.0000   1.0000   1.0000   1.0000   1.0000   1.0000   1.0000   1.0000
     1.0000   1.0000   1.0000   1.0000   1.0000   1.0000   1.0000   1.0000
     1.0000   0.9955   0.9930   0.0009   0.0006   0.0000   0.0000   0.0000
     0.0000   0.0000   0.0000   0.0000   0.0000   0.0000   0.0000   0.0000
     0.0000   0.0000   0.0000   0.0000   0.0000   0.0000   0.0000   0.0000
     0.0000   0.0000   0.0000   0.0000   0.0000   0.0000   0.0000   0.0000
     0.0000   0.0000   0.0000   0.0000   0.0000   0.0000   0.0000   0.0000
     0.0000   0.0000   0.0000   0.0000   0.0000   0.0000   0.0000   0.0000
     0.0000   0.0000   0.0000   0.0000   0.0000   0.0000   0.0000   0.0000

          k = 0.0000 0.1925 0.0000 (  5375 PWs)   bands (ev):

   -79.6536 -79.4848 -79.3526 -74.6619 -74.6503 -74.5253 -45.4940 -45.4531
   -45.4490 -45.3050 -45.3009 -45.2915 -45.2374 -45.1407 -45.1361 -40.6660
   -40.6454 -40.6195 -40.6159 -40.6035 -40.5987 -40.5262 -40.4883 -40.4840
   -11.2547 -11.2467 -11.2316 -11.2251 -11.1865 -11.1821 -11.1714 -11.1614
   -11.1602 -11.1531 -11.1372 -11.1357 -11.1259 -11.1248 -11.1117 -11.0969
   -11.0887 -11.0871 -11.0832 -11.0817 -11.0761 -11.0750 -11.0698 -11.0666
   -11.0639 -11.0537 -11.0447 -11.0418 -11.0311 -11.0277  -7.9005  -7.5358
    -7.4358  -6.7480  -6.6937  -6.3993  -6.3606  -6.2940  -6.2225  -6.1466
    -6.1090  -6.0936  -6.0130  -6.0083  -5.8587  -5.8445  -5.6780  -5.6636
     0.8505   1.0658   1.1393   1.8194   1.9437   2.5257   5.0497   5.1042
     5.1219   5.3911   5.4759   5.5492   5.6134   5.6438   5.7153   5.8219
     5.9121   5.9613   6.0987   6.1477   6.1818   6.2219   6.3343   6.3749
     6.5177   6.6402   6.7566   6.8225   6.9106   7.1428   7.1779   7.3191
     7.3625   7.5790   7.6600   7.7130   7.8163   7.8379   7.9073   7.9715
     8.1146   8.1963   8.2605   8.3275   8.4424   8.5163   8.5568   8.6521
     8.6803   8.7520   8.8411   8.9032   8.9383   8.9883   9.0873   9.2425
     9.2539   9.2729   9.3125   9.4117   9.4580   9.5690   9.6287  10.0365
    10.1292  10.2398  10.3672  10.4239  10.5688  10.6871  10.7433  10.9019
    11.0550  11.4562  11.5193  12.0370  12.0824  12.2055  12.2927  12.3416
    12.3715  12.4286  12.4648  12.5637  13.2247  13.2677  13.7497  13.8357
    14.2507  14.3758  14.9896  15.1628  15.2231  15.3448  15.8586  16.1070
    16.1966  16.3354  16.5809  16.6978  16.7687  16.8040  16.9297  17.0433
    17.2561  17.3385  17.3938  17.4423  18.6178  19.7405  19.9811  20.1627
    20.9662  20.9917  21.0823  21.1480  21.6283  21.7780  22.0700  22.1234
    22.2626  22.3796  22.8504  22.9660  23.0496  23.1334  23.2094  23.3003

     occupation numbers 
     1.0000   1.0000   1.0000   1.0000   1.0000   1.0000   1.0000   1.0000
     1.0000   1.0000   1.0000   1.0000   1.0000   1.0000   1.0000   1.0000
     1.0000   1.0000   1.0000   1.0000   1.0000   1.0000   1.0000   1.0000
     1.0000   1.0000   1.0000   1.0000   1.0000   1.0000   1.0000   1.0000
     1.0000   1.0000   1.0000   1.0000   1.0000   1.0000   1.0000   1.0000
     1.0000   1.0000   1.0000   1.0000   1.0000   1.0000   1.0000   1.0000
     1.0000   1.0000   1.0000   1.0000   1.0000   1.0000   1.0000   1.0000
     1.0000   1.0000   1.0000   1.0000   1.0000   1.0000   1.0000   1.0000
     1.0000   1.0000   1.0000   1.0000   1.0000   1.0000   1.0000   1.0000
     1.0000   1.0000   1.0000   1.0000   1.0000   1.0000   1.0000   1.0000
     1.0000   1.0000   1.0000   1.0000   1.0000   1.0000   1.0000   1.0000
     1.0000   1.0000   1.0000   1.0000   1.0000   1.0000   1.0000   1.0000
     1.0000   1.0000   1.0000   1.0000   1.0000   1.0000   1.0000   1.0000
     1.0000   1.0000   1.0000   1.0000   1.0000   1.0000   1.0000   1.0000
     1.0000   1.0000   1.0000   1.0000   1.0000   1.0000   1.0000   1.0000
     1.0000   1.0000   1.0000   1.0000   1.0000   1.0000   1.0000   1.0000
     1.0000   1.0000   1.0000   1.0000   1.0000   1.0000   1.0000   1.0000
     1.0000   1.0000   1.0000   1.0000   1.0000   1.0000   1.0000   1.0000
     1.0000   0.9994   0.9952   0.0026   0.0006   0.0000   0.0000   0.0000
     0.0000   0.0000   0.0000   0.0000   0.0000   0.0000   0.0000   0.0000
     0.0000   0.0000   0.0000   0.0000   0.0000   0.0000   0.0000   0.0000
     0.0000   0.0000   0.0000   0.0000   0.0000   0.0000   0.0000   0.0000
     0.0000   0.0000   0.0000   0.0000   0.0000   0.0000   0.0000   0.0000
     0.0000   0.0000   0.0000   0.0000   0.0000   0.0000   0.0000   0.0000
     0.0000   0.0000   0.0000   0.0000   0.0000   0.0000   0.0000   0.0000

          k = 0.0000 0.1925 0.0801 (  5376 PWs)   bands (ev):

   -79.6537 -79.4849 -79.3527 -74.6619 -74.6503 -74.5254 -45.4938 -45.4529
   -45.4501 -45.3048 -45.3019 -45.2911 -45.2373 -45.1405 -45.1372 -40.6657
   -40.6451 -40.6189 -40.6176 -40.6035 -40.5990 -40.5263 -40.4881 -40.4849
   -11.2569 -11.2442 -11.2299 -11.2227 -11.1997 -11.1743 -11.1701 -11.1663
   -11.1540 -11.1515 -11.1392 -11.1360 -11.1261 -11.1257 -11.1108 -11.0976
   -11.0885 -11.0873 -11.0828 -11.0817 -11.0772 -11.0743 -11.0695 -11.0669
   -11.0644 -11.0536 -11.0447 -11.0425 -11.0313 -11.0267  -7.8913  -7.6076
    -7.3410  -6.8614  -6.6212  -6.3646  -6.3590  -6.3078  -6.2240  -6.1605
    -6.1110  -6.0933  -6.0100  -6.0043  -5.8611  -5.8464  -5.6778  -5.6632
     0.8536   1.0216   1.2024   1.7090   2.0552   2.5007   5.0398   5.1154
     5.1350   5.3779   5.4616   5.5576   5.5916   5.6419   5.7762   5.8287
     5.8508   6.0186   6.0485   6.1156   6.1888   6.2645   6.3308   6.3923
     6.5371   6.6260   6.7430   6.8174   6.8927   7.1184   7.1966   7.2530
     7.4404   7.5661   7.6517   7.7387   7.7882   7.8459   7.9025   7.9956
     8.1056   8.1966   8.2755   8.3416   8.4060   8.4912   8.5679   8.6387
     8.7452   8.7595   8.8118   8.8825   8.9642   9.0235   9.0677   9.1770
     9.2247   9.2726   9.3374   9.3986   9.4945   9.6029   9.6310   9.9958
    10.1226  10.2300  10.3448  10.4592  10.6063  10.6535  10.7725  10.9076
    11.0366  11.4613  11.5191  12.0332  12.0796  12.2009  12.2917  12.3426
    12.3761  12.4351  12.4639  12.5664  13.2290  13.2658  13.7451  13.8284
    14.2552  14.3767  14.8446  15.0488  15.4112  15.4938  15.7979  16.1499
    16.1728  16.3875  16.6264  16.7227  16.7369  16.8116  16.8967  16.9770
    17.1346  17.2865  17.4749  17.4798  18.6711  19.6568  19.8686  20.4027
    20.9234  21.0338  21.0411  21.1814  21.3628  21.8076  22.0640  22.2330
    22.4097  22.5285  22.7619  22.8974  23.0124  23.1113  23.1884  23.2520

     occupation numbers 
     1.0000   1.0000   1.0000   1.0000   1.0000   1.0000   1.0000   1.0000
     1.0000   1.0000   1.0000   1.0000   1.0000   1.0000   1.0000   1.0000
     1.0000   1.0000   1.0000   1.0000   1.0000   1.0000   1.0000   1.0000
     1.0000   1.0000   1.0000   1.0000   1.0000   1.0000   1.0000   1.0000
     1.0000   1.0000   1.0000   1.0000   1.0000   1.0000   1.0000   1.0000
     1.0000   1.0000   1.0000   1.0000   1.0000   1.0000   1.0000   1.0000
     1.0000   1.0000   1.0000   1.0000   1.0000   1.0000   1.0000   1.0000
     1.0000   1.0000   1.0000   1.0000   1.0000   1.0000   1.0000   1.0000
     1.0000   1.0000   1.0000   1.0000   1.0000   1.0000   1.0000   1.0000
     1.0000   1.0000   1.0000   1.0000   1.0000   1.0000   1.0000   1.0000
     1.0000   1.0000   1.0000   1.0000   1.0000   1.0000   1.0000   1.0000
     1.0000   1.0000   1.0000   1.0000   1.0000   1.0000   1.0000   1.0000
     1.0000   1.0000   1.0000   1.0000   1.0000   1.0000   1.0000   1.0000
     1.0000   1.0000   1.0000   1.0000   1.0000   1.0000   1.0000   1.0000
     1.0000   1.0000   1.0000   1.0000   1.0000   1.0000   1.0000   1.0000
     1.0000   1.0000   1.0000   1.0000   1.0000   1.0000   1.0000   1.0000
     1.0000   1.0000   1.0000   1.0000   1.0000   1.0000   1.0000   1.0000
     1.0000   1.0000   1.0000   1.0000   1.0000   1.0000   1.0000   1.0000
     1.0000   0.9993   0.9953   0.0030   0.0006   0.0000   0.0000   0.0000
     0.0000   0.0000   0.0000   0.0000   0.0000   0.0000   0.0000   0.0000
     0.0000   0.0000   0.0000   0.0000   0.0000   0.0000   0.0000   0.0000
     0.0000   0.0000   0.0000   0.0000   0.0000   0.0000   0.0000   0.0000
     0.0000   0.0000   0.0000   0.0000   0.0000   0.0000   0.0000   0.0000
     0.0000   0.0000   0.0000   0.0000   0.0000   0.0000   0.0000   0.0000
     0.0000   0.0000   0.0000   0.0000   0.0000   0.0000   0.0000   0.0000

          k = 0.0000 0.1925 0.1603 (  5378 PWs)   bands (ev):

   -79.6538 -79.4849 -79.3528 -74.6619 -74.6504 -74.5255 -45.4943 -45.4524
   -45.4507 -45.3043 -45.3024 -45.2915 -45.2392 -45.1398 -45.1381 -40.6643
   -40.6476 -40.6189 -40.6180 -40.6022 -40.6003 -40.5277 -40.4874 -40.4858
   -11.2563 -11.2460 -11.2260 -11.2238 -11.1995 -11.1837 -11.1712 -11.1568
   -11.1526 -11.1472 -11.1418 -11.1393 -11.1262 -11.1259 -11.1098 -11.0988
   -11.0883 -11.0873 -11.0832 -11.0820 -11.0765 -11.0741 -11.0690 -11.0674
   -11.0648 -11.0539 -11.0448 -11.0427 -11.0309 -11.0271  -7.8720  -7.6768
    -7.1935  -7.0229  -6.5555  -6.3625  -6.3445  -6.2951  -6.2217  -6.1994
    -6.1075  -6.0954  -6.0062  -5.9980  -5.8653  -5.8496  -5.6770  -5.6627
     0.8715   0.9593   1.3342   1.5375   2.2230   2.4160   5.0525   5.1214
     5.1431   5.3491   5.4555   5.5093   5.6282   5.6677   5.7397   5.8242
     5.8662   5.9985   6.0638   6.1152   6.1778   6.2884   6.3354   6.4611
     6.5499   6.6328   6.7452   6.7998   6.8545   7.0772   7.1453   7.2512
     7.4443   7.5791   7.6362   7.7331   7.8094   7.8660   7.9168   8.0260
     8.1059   8.2020   8.2829   8.3314   8.3901   8.4736   8.5585   8.6196
     8.7383   8.7781   8.8310   8.8975   8.9721   9.0387   9.0848   9.1448
     9.1985   9.2331   9.3530   9.4201   9.4961   9.6080   9.6321   9.9757
    10.1299  10.2143  10.3463  10.4555  10.5959  10.6750  10.7942  10.9116
    11.0417  11.4560  11.5177  12.0289  12.0789  12.1964  12.2939  12.3407
    12.3747  12.4370  12.4682  12.5691  13.2328  13.2646  13.7323  13.8289
    14.2554  14.3766  14.7734  14.8984  15.6184  15.6772  15.7294  16.1092
    16.1985  16.4693  16.5726  16.6393  16.7799  16.8191  16.9026  17.0009
    17.0362  17.1856  17.4928  17.5066  18.7783  19.4238  20.0362  20.4767
    20.8620  21.0725  21.1005  21.1525  21.2733  21.5393  22.3086  22.3969
    22.5192  22.6211  22.6922  22.8082  22.8774  23.0272  23.1694  23.2256

     occupation numbers 
     1.0000   1.0000   1.0000   1.0000   1.0000   1.0000   1.0000   1.0000
     1.0000   1.0000   1.0000   1.0000   1.0000   1.0000   1.0000   1.0000
     1.0000   1.0000   1.0000   1.0000   1.0000   1.0000   1.0000   1.0000
     1.0000   1.0000   1.0000   1.0000   1.0000   1.0000   1.0000   1.0000
     1.0000   1.0000   1.0000   1.0000   1.0000   1.0000   1.0000   1.0000
     1.0000   1.0000   1.0000   1.0000   1.0000   1.0000   1.0000   1.0000
     1.0000   1.0000   1.0000   1.0000   1.0000   1.0000   1.0000   1.0000
     1.0000   1.0000   1.0000   1.0000   1.0000   1.0000   1.0000   1.0000
     1.0000   1.0000   1.0000   1.0000   1.0000   1.0000   1.0000   1.0000
     1.0000   1.0000   1.0000   1.0000   1.0000   1.0000   1.0000   1.0000
     1.0000   1.0000   1.0000   1.0000   1.0000   1.0000   1.0000   1.0000
     1.0000   1.0000   1.0000   1.0000   1.0000   1.0000   1.0000   1.0000
     1.0000   1.0000   1.0000   1.0000   1.0000   1.0000   1.0000   1.0000
     1.0000   1.0000   1.0000   1.0000   1.0000   1.0000   1.0000   1.0000
     1.0000   1.0000   1.0000   1.0000   1.0000   1.0000   1.0000   1.0000
     1.0000   1.0000   1.0000   1.0000   1.0000   1.0000   1.0000   1.0000
     1.0000   1.0000   1.0000   1.0000   1.0000   1.0000   1.0000   1.0000
     1.0000   1.0000   1.0000   1.0000   1.0000   1.0000   1.0000   1.0000
     1.0000   0.9994   0.9954   0.0034   0.0006   0.0000   0.0000   0.0000
     0.0000   0.0000   0.0000   0.0000   0.0000   0.0000   0.0000   0.0000
     0.0000   0.0000   0.0000   0.0000   0.0000   0.0000   0.0000   0.0000
     0.0000   0.0000   0.0000   0.0000   0.0000   0.0000   0.0000   0.0000
     0.0000   0.0000   0.0000   0.0000   0.0000   0.0000   0.0000   0.0000
     0.0000   0.0000   0.0000   0.0000   0.0000   0.0000   0.0000   0.0000
     0.0000   0.0000   0.0000   0.0000   0.0000   0.0000   0.0000   0.0000

          k = 0.0000 0.3849 0.0000 (  5358 PWs)   bands (ev):

   -79.6532 -79.4844 -79.3522 -74.6614 -74.6500 -74.5250 -45.4936 -45.4526
   -45.4429 -45.3048 -45.2949 -45.2909 -45.2379 -45.1401 -45.1303 -40.6649
   -40.6457 -40.6184 -40.6091 -40.6038 -40.5943 -40.5265 -40.4878 -40.4787
   -11.2509 -11.2336 -11.2232 -11.2088 -11.1841 -11.1819 -11.1727 -11.1650
   -11.1558 -11.1500 -11.1349 -11.1314 -11.1245 -11.1183 -11.1132 -11.1014
   -11.0936 -11.0901 -11.0856 -11.0831 -11.0790 -11.0759 -11.0733 -11.0686
   -11.0644 -11.0532 -11.0523 -11.0430 -11.0385 -11.0291  -7.6560  -7.3449
    -7.2313  -6.9090  -6.6905  -6.5381  -6.4576  -6.3897  -6.2796  -6.2571
    -6.1546  -6.1325  -6.0268  -6.0097  -5.8978  -5.8799  -5.7263  -5.6728
     0.9639   1.0506   1.2634   1.5533   1.8195   2.0306   5.0868   5.2905
     5.3212   5.4204   5.4809   5.6457   5.6891   5.7723   5.9125   5.9588
     6.0334   6.1010   6.1375   6.2272   6.3530   6.4297   6.5579   6.5792
     6.6972   6.8264   6.9870   7.0497   7.1770   7.2412   7.2882   7.3746
     7.4107   7.4845   7.5876   7.6903   7.7418   7.8107   7.9193   8.0232
     8.1020   8.1466   8.2329   8.3005   8.3735   8.4596   8.5088   8.5593
     8.5854   8.7078   8.7833   8.8746   8.9541   8.9982   9.0289   9.1075
     9.1641   9.1909   9.2650   9.4053   9.4419   9.5169   9.5232   9.9060
    10.0733  10.1727  10.3016  10.3897  10.5420  10.6446  10.8468  10.9850
    11.0008  11.2454  11.4983  12.0425  12.1029  12.1860  12.2761  12.3585
    12.4102  12.4370  12.5516  12.7008  13.2454  13.3727  13.5303  13.7953
    13.9566  14.3260  14.6784  15.1633  15.1836  15.2946  15.4930  15.6617
    15.7437  15.7866  16.1628  16.6395  16.6840  16.7772  16.8180  16.9579
    17.0866  17.1469  17.2310  17.3299  19.3610  20.1941  20.3322  20.6206
    21.0882  21.2471  21.6374  21.6765  21.8294  22.0833  22.1827  22.2336
    22.3727  22.5787  22.7864  23.1133  23.1719  23.2666  23.3646  23.4060

     occupation numbers 
     1.0000   1.0000   1.0000   1.0000   1.0000   1.0000   1.0000   1.0000
     1.0000   1.0000   1.0000   1.0000   1.0000   1.0000   1.0000   1.0000
     1.0000   1.0000   1.0000   1.0000   1.0000   1.0000   1.0000   1.0000
     1.0000   1.0000   1.0000   1.0000   1.0000   1.0000   1.0000   1.0000
     1.0000   1.0000   1.0000   1.0000   1.0000   1.0000   1.0000   1.0000
     1.0000   1.0000   1.0000   1.0000   1.0000   1.0000   1.0000   1.0000
     1.0000   1.0000   1.0000   1.0000   1.0000   1.0000   1.0000   1.0000
     1.0000   1.0000   1.0000   1.0000   1.0000   1.0000   1.0000   1.0000
     1.0000   1.0000   1.0000   1.0000   1.0000   1.0000   1.0000   1.0000
     1.0000   1.0000   1.0000   1.0000   1.0000   1.0000   1.0000   1.0000
     1.0000   1.0000   1.0000   1.0000   1.0000   1.0000   1.0000   1.0000
     1.0000   1.0000   1.0000   1.0000   1.0000   1.0000   1.0000   1.0000
     1.0000   1.0000   1.0000   1.0000   1.0000   1.0000   1.0000   1.0000
     1.0000   1.0000   1.0000   1.0000   1.0000   1.0000   1.0000   1.0000
     1.0000   1.0000   1.0000   1.0000   1.0000   1.0000   1.0000   1.0000
     1.0000   1.0000   1.0000   1.0000   1.0000   1.0000   1.0000   1.0000
     1.0000   1.0000   1.0000   1.0000   1.0000   1.0000   1.0000   1.0000
     1.0000   1.0000   1.0000   1.0000   1.0000   1.0000   1.0000   1.0000
     1.0000   1.0000   0.9975   0.0022   0.0003   0.0000   0.0000   0.0000
     0.0000   0.0000   0.0000   0.0000   0.0000   0.0000   0.0000   0.0000
     0.0000   0.0000   0.0000   0.0000   0.0000   0.0000   0.0000   0.0000
     0.0000   0.0000   0.0000   0.0000   0.0000   0.0000   0.0000   0.0000
     0.0000   0.0000   0.0000   0.0000   0.0000   0.0000   0.0000   0.0000
     0.0000   0.0000   0.0000   0.0000   0.0000   0.0000   0.0000   0.0000
     0.0000   0.0000   0.0000   0.0000   0.0000   0.0000   0.0000   0.0000

          k = 0.0000 0.3849 0.0801 (  5339 PWs)   bands (ev):

   -79.6524 -79.4836 -79.3514 -74.6608 -74.6493 -74.5243 -45.4920 -45.4458
   -45.4404 -45.2977 -45.2925 -45.2890 -45.2366 -45.1333 -45.1278 -40.6630
   -40.6448 -40.6126 -40.6063 -40.5967 -40.5924 -40.5252 -40.4814 -40.4763
   -11.2501 -11.2346 -11.2244 -11.2051 -11.1847 -11.1800 -11.1722 -11.1696
   -11.1571 -11.1455 -11.1363 -11.1289 -11.1244 -11.1189 -11.1126 -11.1018
   -11.0924 -11.0885 -11.0858 -11.0839 -11.0798 -11.0744 -11.0729 -11.0693
   -11.0641 -11.0534 -11.0519 -11.0426 -11.0379 -11.0294  -7.6498  -7.3835
    -7.1953  -6.8649  -6.7552  -6.5357  -6.4598  -6.3921  -6.2868  -6.2339
    -6.1370  -6.1060  -6.0488  -6.0297  -5.9016  -5.8750  -5.7246  -5.6732
     0.9518   1.1111   1.1846   1.6527   1.7349   2.0497   5.0844   5.2976
     5.3268   5.4324   5.4853   5.6304   5.6753   5.7818   5.8883   5.9845
     6.0649   6.1306   6.1617   6.2283   6.3430   6.4356   6.4988   6.5872
     6.7128   6.7997   6.9855   7.0588   7.1632   7.2139   7.3142   7.3703
     7.4175   7.4996   7.6182   7.7053   7.7837   7.7916   7.9250   7.9771
     8.1176   8.1613   8.2344   8.3475   8.3983   8.4495   8.4910   8.5521
     8.5815   8.7432   8.8201   8.8854   8.9190   8.9799   9.0330   9.0723
     9.1995   9.2309   9.2718   9.3688   9.4078   9.4982   9.5306   9.9343
    10.1015  10.2000  10.2941  10.3904  10.5588  10.6380  10.8602  10.9822
    11.0105  11.2405  11.5034  12.0476  12.1076  12.1915  12.2831  12.3555
    12.4173  12.4411  12.5519  12.7020  13.2539  13.3717  13.5313  13.8017
    13.9649  14.3171  14.6751  15.1560  15.2415  15.2668  15.3768  15.7024
    15.8425  15.8994  16.0311  16.5941  16.7607  16.8149  16.8431  16.9473
    17.0408  17.1590  17.1919  17.3153  19.3937  20.1368  20.2777  20.6919
    21.1324  21.2736  21.6393  21.6750  21.7496  21.9985  22.2758  22.3222
    22.4011  22.5451  22.7935  23.0937  23.1468  23.3092  23.3487  23.4783

     occupation numbers 
     1.0000   1.0000   1.0000   1.0000   1.0000   1.0000   1.0000   1.0000
     1.0000   1.0000   1.0000   1.0000   1.0000   1.0000   1.0000   1.0000
     1.0000   1.0000   1.0000   1.0000   1.0000   1.0000   1.0000   1.0000
     1.0000   1.0000   1.0000   1.0000   1.0000   1.0000   1.0000   1.0000
     1.0000   1.0000   1.0000   1.0000   1.0000   1.0000   1.0000   1.0000
     1.0000   1.0000   1.0000   1.0000   1.0000   1.0000   1.0000   1.0000
     1.0000   1.0000   1.0000   1.0000   1.0000   1.0000   1.0000   1.0000
     1.0000   1.0000   1.0000   1.0000   1.0000   1.0000   1.0000   1.0000
     1.0000   1.0000   1.0000   1.0000   1.0000   1.0000   1.0000   1.0000
     1.0000   1.0000   1.0000   1.0000   1.0000   1.0000   1.0000   1.0000
     1.0000   1.0000   1.0000   1.0000   1.0000   1.0000   1.0000   1.0000
     1.0000   1.0000   1.0000   1.0000   1.0000   1.0000   1.0000   1.0000
     1.0000   1.0000   1.0000   1.0000   1.0000   1.0000   1.0000   1.0000
     1.0000   1.0000   1.0000   1.0000   1.0000   1.0000   1.0000   1.0000
     1.0000   1.0000   1.0000   1.0000   1.0000   1.0000   1.0000   1.0000
     1.0000   1.0000   1.0000   1.0000   1.0000   1.0000   1.0000   1.0000
     1.0000   1.0000   1.0000   1.0000   1.0000   1.0000   1.0000   1.0000
     1.0000   1.0000   1.0000   1.0000   1.0000   1.0000   1.0000   1.0000
     1.0000   1.0000   0.9971   0.0019   0.0002   0.0000   0.0000   0.0000
     0.0000   0.0000   0.0000   0.0000   0.0000   0.0000   0.0000   0.0000
     0.0000   0.0000   0.0000   0.0000   0.0000   0.0000   0.0000   0.0000
     0.0000   0.0000   0.0000   0.0000   0.0000   0.0000   0.0000   0.0000
     0.0000   0.0000   0.0000   0.0000   0.0000   0.0000   0.0000   0.0000
     0.0000   0.0000   0.0000   0.0000   0.0000   0.0000   0.0000   0.0000
     0.0000   0.0000   0.0000   0.0000   0.0000   0.0000   0.0000   0.0000

          k = 0.0000 0.3849 0.1603 (  5352 PWs)   bands (ev):

   -79.6529 -79.4841 -79.3519 -74.6612 -74.6497 -74.5247 -45.4957 -45.4472
   -45.4434 -45.2988 -45.2952 -45.2917 -45.2400 -45.1345 -45.1304 -40.6669
   -40.6482 -40.6150 -40.6093 -40.5968 -40.5937 -40.5281 -40.4825 -40.4786
   -11.2526 -11.2283 -11.2249 -11.2041 -11.1937 -11.1819 -11.1750 -11.1599
   -11.1578 -11.1457 -11.1354 -11.1299 -11.1235 -11.1193 -11.1136 -11.1023
   -11.0925 -11.0893 -11.0852 -11.0835 -11.0806 -11.0747 -11.0726 -11.0692
   -11.0647 -11.0534 -11.0520 -11.0438 -11.0382 -11.0292  -7.6351  -7.4427
    -7.1067  -6.8805  -6.8099  -6.5136  -6.4572  -6.4029  -6.2911  -6.1987
    -6.1352  -6.1218  -6.0433  -6.0396  -5.9031  -5.8742  -5.7253  -5.6731
     0.9442   1.1119   1.2065   1.5821   1.7978   2.0398   5.0755   5.2940
     5.3266   5.4767   5.5033   5.6134   5.6707   5.8045   5.8636   5.9444
     6.0495   6.1005   6.1494   6.2233   6.3194   6.4118   6.5541   6.6204
     6.7034   6.8239   6.9315   7.0338   7.1577   7.2182   7.2736   7.4298
     7.4443   7.5320   7.6420   7.7010   7.7703   7.8246   7.8945   7.9909
     8.0634   8.1518   8.2145   8.3214   8.3922   8.4496   8.4827   8.5492
     8.5982   8.7437   8.7770   8.8668   8.9113   8.9907   9.0547   9.1114
     9.1852   9.2537   9.3021   9.3296   9.3936   9.4823   9.5454   9.9400
    10.0691  10.1845  10.2716  10.4263  10.5424  10.6659  10.8749  10.9756
    11.0249  11.2182  11.4930  12.0477  12.1054  12.1844  12.2823  12.3531
    12.4142  12.4431  12.5507  12.6982  13.2536  13.3740  13.5297  13.7915
    13.9622  14.3105  14.7358  15.0916  15.1819  15.2825  15.3691  15.6647
    15.8974  15.9514  16.1461  16.5050  16.6906  16.7460  16.8070  16.9846
    17.0636  17.1446  17.2482  17.3462  19.4260  20.0100  20.3208  20.7321
    21.1251  21.3089  21.6069  21.6891  21.7720  21.8751  22.3241  22.4287
    22.5036  22.5922  22.8121  22.8586  22.9959  23.3200  23.3810  23.4960

     occupation numbers 
     1.0000   1.0000   1.0000   1.0000   1.0000   1.0000   1.0000   1.0000
     1.0000   1.0000   1.0000   1.0000   1.0000   1.0000   1.0000   1.0000
     1.0000   1.0000   1.0000   1.0000   1.0000   1.0000   1.0000   1.0000
     1.0000   1.0000   1.0000   1.0000   1.0000   1.0000   1.0000   1.0000
     1.0000   1.0000   1.0000   1.0000   1.0000   1.0000   1.0000   1.0000
     1.0000   1.0000   1.0000   1.0000   1.0000   1.0000   1.0000   1.0000
     1.0000   1.0000   1.0000   1.0000   1.0000   1.0000   1.0000   1.0000
     1.0000   1.0000   1.0000   1.0000   1.0000   1.0000   1.0000   1.0000
     1.0000   1.0000   1.0000   1.0000   1.0000   1.0000   1.0000   1.0000
     1.0000   1.0000   1.0000   1.0000   1.0000   1.0000   1.0000   1.0000
     1.0000   1.0000   1.0000   1.0000   1.0000   1.0000   1.0000   1.0000
     1.0000   1.0000   1.0000   1.0000   1.0000   1.0000   1.0000   1.0000
     1.0000   1.0000   1.0000   1.0000   1.0000   1.0000   1.0000   1.0000
     1.0000   1.0000   1.0000   1.0000   1.0000   1.0000   1.0000   1.0000
     1.0000   1.0000   1.0000   1.0000   1.0000   1.0000   1.0000   1.0000
     1.0000   1.0000   1.0000   1.0000   1.0000   1.0000   1.0000   1.0000
     1.0000   1.0000   1.0000   1.0000   1.0000   1.0000   1.0000   1.0000
     1.0000   1.0000   1.0000   1.0000   1.0000   1.0000   1.0000   1.0000
     1.0000   1.0000   0.9979   0.0019   0.0002   0.0000   0.0000   0.0000
     0.0000   0.0000   0.0000   0.0000   0.0000   0.0000   0.0000   0.0000
     0.0000   0.0000   0.0000   0.0000   0.0000   0.0000   0.0000   0.0000
     0.0000   0.0000   0.0000   0.0000   0.0000   0.0000   0.0000   0.0000
     0.0000   0.0000   0.0000   0.0000   0.0000   0.0000   0.0000   0.0000
     0.0000   0.0000   0.0000   0.0000   0.0000   0.0000   0.0000   0.0000
     0.0000   0.0000   0.0000   0.0000   0.0000   0.0000   0.0000   0.0000

          k = 0.0000-0.5774 0.0000 (  5314 PWs)   bands (ev):

   -79.6517 -79.4828 -79.3507 -74.6601 -74.6487 -74.5237 -45.4840 -45.4424
   -45.4409 -45.2946 -45.2924 -45.2811 -45.2290 -45.1302 -45.1283 -40.6545
   -40.6387 -40.6089 -40.6072 -40.5944 -40.5916 -40.5180 -40.4785 -40.4767
   -11.2527 -11.2216 -11.2065 -11.2009 -11.1923 -11.1865 -11.1755 -11.1635
   -11.1462 -11.1417 -11.1358 -11.1307 -11.1216 -11.1212 -11.1138 -11.1050
   -11.0956 -11.0926 -11.0856 -11.0812 -11.0791 -11.0774 -11.0739 -11.0683
   -11.0652 -11.0572 -11.0519 -11.0449 -11.0423 -11.0283  -7.3445  -7.3002
    -7.1262  -6.9655  -6.9198  -6.5554  -6.5351  -6.4413  -6.3015  -6.2155
    -6.1875  -6.1563  -6.0912  -6.0218  -5.9052  -5.8591  -5.7709  -5.6799
     0.9993   1.2225   1.2408   1.5359   1.5951   1.8064   5.0605   5.3272
     5.3827   5.4683   5.6869   5.6908   5.8254   5.8469   5.8758   6.0318
     6.0697   6.1263   6.2196   6.2968   6.4963   6.5838   6.6443   6.7402
     6.7770   6.8358   7.0013   7.0624   7.1628   7.2235   7.2801   7.4166
     7.4749   7.5200   7.6508   7.7398   7.7914   7.8194   7.9160   7.9687
     8.0718   8.1676   8.2205   8.2805   8.3607   8.3715   8.4908   8.5292
     8.5829   8.6435   8.7185   8.7790   8.9581   9.1002   9.1102   9.1479
     9.2030   9.2579   9.2853   9.3845   9.4401   9.5197   9.5856   9.8389
    10.0568  10.1898  10.3531  10.3765  10.4438  10.5959  10.8702  10.9087
    11.0181  11.0271  11.4838  12.0468  12.1211  12.2519  12.3070  12.3591
    12.4195  12.4382  12.6291  12.7304  13.2918  13.3572  13.5573  13.7082
    13.7928  14.3102  14.5625  15.1165  15.1635  15.3585  15.4340  15.4707
    15.5141  15.5599  15.6375  16.6474  16.6933  16.7753  16.8453  16.9326
    16.9972  17.0651  17.1289  17.2044  20.0713  20.2351  20.5055  21.0125
    21.1552  21.2334  21.7143  21.8740  22.0010  22.3040  22.3453  22.3642
    22.4808  22.5258  22.8599  22.9175  23.1404  23.2020  23.2640  23.3222

     occupation numbers 
     1.0000   1.0000   1.0000   1.0000   1.0000   1.0000   1.0000   1.0000
     1.0000   1.0000   1.0000   1.0000   1.0000   1.0000   1.0000   1.0000
     1.0000   1.0000   1.0000   1.0000   1.0000   1.0000   1.0000   1.0000
     1.0000   1.0000   1.0000   1.0000   1.0000   1.0000   1.0000   1.0000
     1.0000   1.0000   1.0000   1.0000   1.0000   1.0000   1.0000   1.0000
     1.0000   1.0000   1.0000   1.0000   1.0000   1.0000   1.0000   1.0000
     1.0000   1.0000   1.0000   1.0000   1.0000   1.0000   1.0000   1.0000
     1.0000   1.0000   1.0000   1.0000   1.0000   1.0000   1.0000   1.0000
     1.0000   1.0000   1.0000   1.0000   1.0000   1.0000   1.0000   1.0000
     1.0000   1.0000   1.0000   1.0000   1.0000   1.0000   1.0000   1.0000
     1.0000   1.0000   1.0000   1.0000   1.0000   1.0000   1.0000   1.0000
     1.0000   1.0000   1.0000   1.0000   1.0000   1.0000   1.0000   1.0000
     1.0000   1.0000   1.0000   1.0000   1.0000   1.0000   1.0000   1.0000
     1.0000   1.0000   1.0000   1.0000   1.0000   1.0000   1.0000   1.0000
     1.0000   1.0000   1.0000   1.0000   1.0000   1.0000   1.0000   1.0000
     1.0000   1.0000   1.0000   1.0000   1.0000   1.0000   1.0000   1.0000
     1.0000   1.0000   1.0000   1.0000   1.0000   1.0000   1.0000   1.0000
     1.0000   1.0000   1.0000   1.0000   1.0000   1.0000   1.0000   1.0000
     1.0000   1.0000   0.9985   0.0019   0.0001   0.0000   0.0000   0.0000
     0.0000   0.0000   0.0000   0.0000   0.0000   0.0000   0.0000   0.0000
     0.0000   0.0000   0.0000   0.0000   0.0000   0.0000   0.0000   0.0000
     0.0000   0.0000   0.0000   0.0000   0.0000   0.0000   0.0000   0.0000
     0.0000   0.0000   0.0000   0.0000   0.0000   0.0000   0.0000   0.0000
     0.0000   0.0000   0.0000   0.0000   0.0000   0.0000   0.0000   0.0000
     0.0000   0.0000   0.0000   0.0000   0.0000   0.0000   0.0000   0.0000

          k = 0.0000-0.5774 0.0801 (  5338 PWs)   bands (ev):

   -79.6526 -79.4838 -79.3517 -74.6610 -74.6495 -74.5245 -45.4959 -45.4432
   -45.4425 -45.2950 -45.2939 -45.2924 -45.2398 -45.1307 -45.1296 -40.6675
   -40.6481 -40.6105 -40.6079 -40.5938 -40.5933 -40.5279 -40.4790 -40.4779
   -11.2518 -11.2273 -11.2063 -11.1965 -11.1917 -11.1860 -11.1771 -11.1617
   -11.1514 -11.1444 -11.1374 -11.1279 -11.1221 -11.1202 -11.1139 -11.1050
   -11.0952 -11.0921 -11.0856 -11.0825 -11.0795 -11.0783 -11.0735 -11.0686
   -11.0655 -11.0571 -11.0523 -11.0450 -11.0422 -11.0294  -7.3441  -7.2944
    -7.1328  -7.0122  -6.8591  -6.5698  -6.5312  -6.4394  -6.3160  -6.2366
    -6.1772  -6.1441  -6.0736  -6.0325  -5.9014  -5.8608  -5.7734  -5.6802
     1.0085   1.1677   1.2983   1.4926   1.6340   1.7964   5.0583   5.3183
     5.3787   5.4680   5.6707   5.6761   5.8014   5.9016   5.9064   6.0373
     6.0840   6.1227   6.2160   6.3024   6.4174   6.5576   6.6278   6.7301
     6.7576   6.8887   6.9481   7.0545   7.1400   7.2100   7.3007   7.4284
     7.4822   7.5666   7.6422   7.7352   7.7874   7.8226   7.9104   7.9897
     8.0604   8.1414   8.2262   8.2634   8.3397   8.3999   8.4826   8.5200
     8.6036   8.6637   8.7254   8.7928   8.9435   9.0588   9.1091   9.1379
     9.2038   9.2552   9.2712   9.3669   9.4025   9.5254   9.5489   9.8516
    10.0529  10.1602  10.3427  10.4106  10.4509  10.6044  10.8696  10.9064
    10.9941  11.0238  11.4787  12.0427  12.1046  12.2471  12.2942  12.3454
    12.4153  12.4323  12.6254  12.7214  13.2879  13.3608  13.5545  13.6918
    13.7964  14.2909  14.6038  15.0761  15.1357  15.2334  15.3630  15.5096
    15.5438  15.6520  15.8128  16.5901  16.6231  16.6919  16.8007  16.8591
    17.0514  17.1038  17.1829  17.2444  20.0709  20.2256  20.5019  21.0226
    21.1404  21.2263  21.7855  21.8647  22.0568  22.2540  22.3233  22.3498
    22.4846  22.5794  22.7891  22.9856  23.1067  23.2054  23.2362  23.2753

     occupation numbers 
     1.0000   1.0000   1.0000   1.0000   1.0000   1.0000   1.0000   1.0000
     1.0000   1.0000   1.0000   1.0000   1.0000   1.0000   1.0000   1.0000
     1.0000   1.0000   1.0000   1.0000   1.0000   1.0000   1.0000   1.0000
     1.0000   1.0000   1.0000   1.0000   1.0000   1.0000   1.0000   1.0000
     1.0000   1.0000   1.0000   1.0000   1.0000   1.0000   1.0000   1.0000
     1.0000   1.0000   1.0000   1.0000   1.0000   1.0000   1.0000   1.0000
     1.0000   1.0000   1.0000   1.0000   1.0000   1.0000   1.0000   1.0000
     1.0000   1.0000   1.0000   1.0000   1.0000   1.0000   1.0000   1.0000
     1.0000   1.0000   1.0000   1.0000   1.0000   1.0000   1.0000   1.0000
     1.0000   1.0000   1.0000   1.0000   1.0000   1.0000   1.0000   1.0000
     1.0000   1.0000   1.0000   1.0000   1.0000   1.0000   1.0000   1.0000
     1.0000   1.0000   1.0000   1.0000   1.0000   1.0000   1.0000   1.0000
     1.0000   1.0000   1.0000   1.0000   1.0000   1.0000   1.0000   1.0000
     1.0000   1.0000   1.0000   1.0000   1.0000   1.0000   1.0000   1.0000
     1.0000   1.0000   1.0000   1.0000   1.0000   1.0000   1.0000   1.0000
     1.0000   1.0000   1.0000   1.0000   1.0000   1.0000   1.0000   1.0000
     1.0000   1.0000   1.0000   1.0000   1.0000   1.0000   1.0000   1.0000
     1.0000   1.0000   1.0000   1.0000   1.0000   1.0000   1.0000   1.0000
     1.0000   1.0000   0.9987   0.0022   0.0002   0.0000   0.0000   0.0000
     0.0000   0.0000   0.0000   0.0000   0.0000   0.0000   0.0000   0.0000
     0.0000   0.0000   0.0000   0.0000   0.0000   0.0000   0.0000   0.0000
     0.0000   0.0000   0.0000   0.0000   0.0000   0.0000   0.0000   0.0000
     0.0000   0.0000   0.0000   0.0000   0.0000   0.0000   0.0000   0.0000
     0.0000   0.0000   0.0000   0.0000   0.0000   0.0000   0.0000   0.0000
     0.0000   0.0000   0.0000   0.0000   0.0000   0.0000   0.0000   0.0000

          k = 0.0000-0.5774 0.1603 (  5348 PWs)   bands (ev):

   -79.6530 -79.4842 -79.3520 -74.6613 -74.6498 -74.5248 -45.4948 -45.4478
   -45.4431 -45.2998 -45.2952 -45.2920 -45.2396 -45.1352 -45.1306 -40.6647
   -40.6485 -40.6145 -40.6088 -40.5987 -40.5949 -40.5279 -40.4831 -40.4790
   -11.2496 -11.2337 -11.2061 -11.1937 -11.1893 -11.1817 -11.1755 -11.1635
   -11.1568 -11.1485 -11.1376 -11.1267 -11.1219 -11.1187 -11.1145 -11.1050
   -11.0937 -11.0906 -11.0858 -11.0851 -11.0795 -11.0791 -11.0727 -11.0688
   -11.0657 -11.0570 -11.0524 -11.0450 -11.0416 -11.0302  -7.3432  -7.2838
    -7.1450  -7.0479  -6.7890  -6.6161  -6.5074  -6.4364  -6.3386  -6.2710
    -6.1506  -6.1264  -6.0598  -6.0470  -5.8956  -5.8632  -5.7775  -5.6807
     1.0300   1.1184   1.3627   1.4307   1.6814   1.7739   5.0570   5.3067
     5.3745   5.4660   5.6489   5.6633   5.7955   5.9515   5.9847   6.0428
     6.1078   6.1462   6.2096   6.3129   6.3266   6.4572   6.6137   6.7193
     6.7394   6.8692   6.9766   7.0291   7.1427   7.2136   7.3349   7.3955
     7.5203   7.5768   7.6877   7.7068   7.7807   7.8106   7.9203   8.0239
     8.0526   8.1082   8.2332   8.2830   8.2979   8.4334   8.4911   8.5182
     8.6122   8.7134   8.7736   8.8264   8.9161   9.0051   9.0715   9.1086
     9.2075   9.2248   9.2810   9.3338   9.3808   9.5133   9.5434   9.8765
    10.0529  10.1143  10.3436  10.4332  10.4712  10.6298  10.8775  10.9171
    10.9569  11.0194  11.4843  12.0452  12.0991  12.2401  12.2950  12.3400
    12.4171  12.4328  12.6262  12.7135  13.2803  13.3686  13.5607  13.6767
    13.8052  14.2759  14.6963  14.9608  15.0758  15.1262  15.4116  15.4932
    15.6151  15.7196  16.1105  16.3928  16.5243  16.5979  16.7510  16.8024
    17.0955  17.1400  17.2514  17.2971  20.0736  20.2093  20.5009  21.0451
    21.1204  21.2154  21.8890  21.9509  22.0737  22.2135  22.2506  22.3002
    22.5884  22.6585  22.7238  22.8787  23.0610  23.1882  23.2840  23.3676

     occupation numbers 
     1.0000   1.0000   1.0000   1.0000   1.0000   1.0000   1.0000   1.0000
     1.0000   1.0000   1.0000   1.0000   1.0000   1.0000   1.0000   1.0000
     1.0000   1.0000   1.0000   1.0000   1.0000   1.0000   1.0000   1.0000
     1.0000   1.0000   1.0000   1.0000   1.0000   1.0000   1.0000   1.0000
     1.0000   1.0000   1.0000   1.0000   1.0000   1.0000   1.0000   1.0000
     1.0000   1.0000   1.0000   1.0000   1.0000   1.0000   1.0000   1.0000
     1.0000   1.0000   1.0000   1.0000   1.0000   1.0000   1.0000   1.0000
     1.0000   1.0000   1.0000   1.0000   1.0000   1.0000   1.0000   1.0000
     1.0000   1.0000   1.0000   1.0000   1.0000   1.0000   1.0000   1.0000
     1.0000   1.0000   1.0000   1.0000   1.0000   1.0000   1.0000   1.0000
     1.0000   1.0000   1.0000   1.0000   1.0000   1.0000   1.0000   1.0000
     1.0000   1.0000   1.0000   1.0000   1.0000   1.0000   1.0000   1.0000
     1.0000   1.0000   1.0000   1.0000   1.0000   1.0000   1.0000   1.0000
     1.0000   1.0000   1.0000   1.0000   1.0000   1.0000   1.0000   1.0000
     1.0000   1.0000   1.0000   1.0000   1.0000   1.0000   1.0000   1.0000
     1.0000   1.0000   1.0000   1.0000   1.0000   1.0000   1.0000   1.0000
     1.0000   1.0000   1.0000   1.0000   1.0000   1.0000   1.0000   1.0000
     1.0000   1.0000   1.0000   1.0000   1.0000   1.0000   1.0000   1.0000
     1.0000   1.0000   0.9984   0.0020   0.0003   0.0000   0.0000   0.0000
     0.0000   0.0000   0.0000   0.0000   0.0000   0.0000   0.0000   0.0000
     0.0000   0.0000   0.0000   0.0000   0.0000   0.0000   0.0000   0.0000
     0.0000   0.0000   0.0000   0.0000   0.0000   0.0000   0.0000   0.0000
     0.0000   0.0000   0.0000   0.0000   0.0000   0.0000   0.0000   0.0000
     0.0000   0.0000   0.0000   0.0000   0.0000   0.0000   0.0000   0.0000
     0.0000   0.0000   0.0000   0.0000   0.0000   0.0000   0.0000   0.0000

          k = 0.1667 0.2887 0.0000 (  5349 PWs)   bands (ev):

   -79.6527 -79.4839 -79.3518 -74.6611 -74.6495 -74.5246 -45.4937 -45.4492
   -45.4408 -45.3010 -45.2922 -45.2906 -45.2377 -45.1366 -45.1279 -40.6656
   -40.6453 -40.6164 -40.6088 -40.5987 -40.5905 -40.5262 -40.4844 -40.4763
   -11.2471 -11.2366 -11.2296 -11.2189 -11.1813 -11.1762 -11.1707 -11.1662
   -11.1610 -11.1515 -11.1351 -11.1324 -11.1236 -11.1196 -11.1115 -11.0993
   -11.0918 -11.0886 -11.0843 -11.0830 -11.0785 -11.0756 -11.0715 -11.0673
   -11.0655 -11.0529 -11.0493 -11.0437 -11.0355 -11.0305  -7.7344  -7.4003
    -7.2962  -6.7843  -6.7341  -6.4929  -6.4052  -6.3937  -6.2948  -6.2029
    -6.1677  -6.1079  -6.0402  -5.9885  -5.8995  -5.8726  -5.7010  -5.6756
     0.9302   1.1115   1.1525   1.6960   1.7827   2.1615   5.1446   5.1888
     5.2695   5.3703   5.5226   5.6277   5.6995   5.7829   5.8030   5.8745
     6.0233   6.0731   6.1564   6.2175   6.3162   6.4047   6.4416   6.5254
     6.6905   6.7577   6.9136   7.0559   7.0920   7.1817   7.3007   7.3363
     7.4490   7.5526   7.6053   7.6622   7.7718   7.8328   7.9284   7.9741
     8.1320   8.2043   8.2472   8.2939   8.3309   8.4312   8.4910   8.6094
     8.6730   8.7412   8.7728   8.8889   8.9255   8.9990   9.0789   9.1152
     9.1807   9.2269   9.2995   9.3470   9.4564   9.4656   9.5866   9.8604
    10.0808  10.1763  10.3530  10.4834  10.6242  10.6832  10.7685  10.9520
    11.0380  11.3220  11.5086  12.0278  12.1193  12.1873  12.2774  12.3494
    12.3974  12.4602  12.5199  12.6656  13.2348  13.3427  13.6435  13.7440
    14.1316  14.3125  14.8300  14.8950  15.3178  15.3670  15.4066  15.8421
    15.9302  15.9776  16.4564  16.5566  16.6215  16.7571  16.8059  16.9072
    17.1022  17.2203  17.2543  17.4383  19.1425  20.0643  20.2489  20.4852
    21.1114  21.2367  21.3150  21.5888  21.8042  21.8606  22.2396  22.3575
    22.4492  22.6144  22.8415  22.8730  23.1437  23.2060  23.2798  23.3662

     occupation numbers 
     1.0000   1.0000   1.0000   1.0000   1.0000   1.0000   1.0000   1.0000
     1.0000   1.0000   1.0000   1.0000   1.0000   1.0000   1.0000   1.0000
     1.0000   1.0000   1.0000   1.0000   1.0000   1.0000   1.0000   1.0000
     1.0000   1.0000   1.0000   1.0000   1.0000   1.0000   1.0000   1.0000
     1.0000   1.0000   1.0000   1.0000   1.0000   1.0000   1.0000   1.0000
     1.0000   1.0000   1.0000   1.0000   1.0000   1.0000   1.0000   1.0000
     1.0000   1.0000   1.0000   1.0000   1.0000   1.0000   1.0000   1.0000
     1.0000   1.0000   1.0000   1.0000   1.0000   1.0000   1.0000   1.0000
     1.0000   1.0000   1.0000   1.0000   1.0000   1.0000   1.0000   1.0000
     1.0000   1.0000   1.0000   1.0000   1.0000   1.0000   1.0000   1.0000
     1.0000   1.0000   1.0000   1.0000   1.0000   1.0000   1.0000   1.0000
     1.0000   1.0000   1.0000   1.0000   1.0000   1.0000   1.0000   1.0000
     1.0000   1.0000   1.0000   1.0000   1.0000   1.0000   1.0000   1.0000
     1.0000   1.0000   1.0000   1.0000   1.0000   1.0000   1.0000   1.0000
     1.0000   1.0000   1.0000   1.0000   1.0000   1.0000   1.0000   1.0000
     1.0000   1.0000   1.0000   1.0000   1.0000   1.0000   1.0000   1.0000
     1.0000   1.0000   1.0000   1.0000   1.0000   1.0000   1.0000   1.0000
     1.0000   1.0000   1.0000   1.0000   1.0000   1.0000   1.0000   1.0000
     1.0000   1.0000   0.9966   0.0035   0.0001   0.0000   0.0000   0.0000
     0.0000   0.0000   0.0000   0.0000   0.0000   0.0000   0.0000   0.0000
     0.0000   0.0000   0.0000   0.0000   0.0000   0.0000   0.0000   0.0000
     0.0000   0.0000   0.0000   0.0000   0.0000   0.0000   0.0000   0.0000
     0.0000   0.0000   0.0000   0.0000   0.0000   0.0000   0.0000   0.0000
     0.0000   0.0000   0.0000   0.0000   0.0000   0.0000   0.0000   0.0000
     0.0000   0.0000   0.0000   0.0000   0.0000   0.0000   0.0000   0.0000

          k = 0.1667 0.2887 0.0801 (  5345 PWs)   bands (ev):

   -79.6525 -79.4837 -79.3516 -74.6609 -74.6493 -74.5244 -45.4928 -45.4481
   -45.4400 -45.2996 -45.2925 -45.2888 -45.2372 -45.1353 -45.1272 -40.6643
   -40.6447 -40.6154 -40.6080 -40.5974 -40.5901 -40.5257 -40.4833 -40.4757
   -11.2475 -11.2392 -11.2245 -11.2165 -11.1870 -11.1803 -11.1724 -11.1638
   -11.1552 -11.1500 -11.1370 -11.1308 -11.1231 -11.1206 -11.1113 -11.1003
   -11.0915 -11.0888 -11.0846 -11.0828 -11.0778 -11.0766 -11.0703 -11.0678
   -11.0657 -11.0529 -11.0494 -11.0438 -11.0351 -11.0302  -7.7262  -7.4604
    -7.2161  -6.8497  -6.7033  -6.5068  -6.4036  -6.3709  -6.3014  -6.2024
    -6.1518  -6.1101  -6.0445  -5.9960  -5.9006  -5.8711  -5.7013  -5.6752
     0.9342   1.0592   1.2269   1.5958   1.8750   2.1433   5.1376   5.1939
     5.2771   5.3907   5.5324   5.5995   5.6829   5.7799   5.8029   5.9383
     6.0002   6.0763   6.1375   6.2003   6.2639   6.3577   6.4859   6.5717
     6.6946   6.7966   6.8918   7.0288   7.1297   7.1778   7.2962   7.3320
     7.4518   7.5438   7.5991   7.6684   7.7912   7.8579   7.9221   7.9720
     8.1359   8.1822   8.2697   8.2945   8.3162   8.4188   8.4833   8.6204
     8.6727   8.7249   8.8101   8.9000   8.9182   8.9608   9.0740   9.1234
     9.1520   9.2358   9.2935   9.3816   9.4400   9.4954   9.5784   9.9109
    10.0902  10.1488  10.3660  10.4820  10.5974  10.6670  10.7839  10.9730
    11.0385  11.3260  11.5029  12.0293  12.1195  12.1880  12.2765  12.3512
    12.4014  12.4657  12.5179  12.6691  13.2396  13.3406  13.6448  13.7432
    14.1298  14.3136  14.8064  14.9705  15.1842  15.3279  15.5240  15.8232
    15.9498  16.0510  16.3855  16.4424  16.7411  16.7937  16.8463  16.9045
    17.0800  17.1677  17.2857  17.4036  19.1677  20.0027  20.2109  20.6028
    21.0376  21.2682  21.3530  21.6013  21.6469  22.0407  22.1060  22.3836
    22.5569  22.6495  22.7932  22.8984  23.0097  23.1899  23.3139  23.4045

     occupation numbers 
     1.0000   1.0000   1.0000   1.0000   1.0000   1.0000   1.0000   1.0000
     1.0000   1.0000   1.0000   1.0000   1.0000   1.0000   1.0000   1.0000
     1.0000   1.0000   1.0000   1.0000   1.0000   1.0000   1.0000   1.0000
     1.0000   1.0000   1.0000   1.0000   1.0000   1.0000   1.0000   1.0000
     1.0000   1.0000   1.0000   1.0000   1.0000   1.0000   1.0000   1.0000
     1.0000   1.0000   1.0000   1.0000   1.0000   1.0000   1.0000   1.0000
     1.0000   1.0000   1.0000   1.0000   1.0000   1.0000   1.0000   1.0000
     1.0000   1.0000   1.0000   1.0000   1.0000   1.0000   1.0000   1.0000
     1.0000   1.0000   1.0000   1.0000   1.0000   1.0000   1.0000   1.0000
     1.0000   1.0000   1.0000   1.0000   1.0000   1.0000   1.0000   1.0000
     1.0000   1.0000   1.0000   1.0000   1.0000   1.0000   1.0000   1.0000
     1.0000   1.0000   1.0000   1.0000   1.0000   1.0000   1.0000   1.0000
     1.0000   1.0000   1.0000   1.0000   1.0000   1.0000   1.0000   1.0000
     1.0000   1.0000   1.0000   1.0000   1.0000   1.0000   1.0000   1.0000
     1.0000   1.0000   1.0000   1.0000   1.0000   1.0000   1.0000   1.0000
     1.0000   1.0000   1.0000   1.0000   1.0000   1.0000   1.0000   1.0000
     1.0000   1.0000   1.0000   1.0000   1.0000   1.0000   1.0000   1.0000
     1.0000   1.0000   1.0000   1.0000   1.0000   1.0000   1.0000   1.0000
     1.0000   1.0000   0.9971   0.0034   0.0001   0.0000   0.0000   0.0000
[...]
     1.0000   1.0000   0.9997   0.0016   0.0001   0.0000   0.0000   0.0000
     0.0000   0.0000   0.0000   0.0000   0.0000   0.0000   0.0000   0.0000
     0.0000   0.0000   0.0000   0.0000   0.0000   0.0000   0.0000   0.0000
     0.0000   0.0000   0.0000   0.0000   0.0000   0.0000   0.0000   0.0000
     0.0000   0.0000   0.0000   0.0000   0.0000   0.0000   0.0000   0.0000
     0.0000   0.0000   0.0000   0.0000   0.0000   0.0000   0.0000   0.0000
     0.0000   0.0000   0.0000   0.0000   0.0000   0.0000   0.0000   0.0000

          k =-0.3333 0.3849 0.1603 (  5346 PWs)   bands (ev):

   -79.6426 -79.4835 -79.3514 -74.6699 -74.6489 -74.5243 -45.4844 -45.4376
   -45.4330 -45.2989 -45.2937 -45.2907 -45.2381 -45.1343 -45.1297 -40.6727
   -40.6476 -40.6235 -40.6173 -40.5967 -40.5927 -40.5271 -40.4820 -40.4780
   -11.2418 -11.2246 -11.2176 -11.2080 -11.1905 -11.1849 -11.1726 -11.1580
   -11.1530 -11.1481 -11.1355 -11.1281 -11.1227 -11.1172 -11.1113 -11.1036
   -11.0948 -11.0897 -11.0875 -11.0819 -11.0798 -11.0766 -11.0750 -11.0700
   -11.0648 -11.0558 -11.0520 -11.0457 -11.0431 -11.0357  -7.4213  -7.2636
    -7.0722  -6.9415  -6.8742  -6.6671  -6.4582  -6.4221  -6.3467  -6.2794
    -6.1823  -6.1152  -6.0871  -6.0106  -5.9334  -5.8476  -5.7518  -5.6939
     1.0660   1.2001   1.2817   1.4706   1.6172   1.7563   5.1268   5.2784
     5.3664   5.4638   5.6497   5.7055   5.7831   5.8846   5.9181   6.0307
     6.1072   6.2009   6.2754   6.3189   6.4000   6.4801   6.5323   6.7329
     6.7676   6.8935   6.9429   7.0706   7.1390   7.2007   7.3634   7.4521
     7.5015   7.5892   7.6420   7.6792   7.7304   7.8172   7.9068   7.9806
     8.0481   8.1161   8.2393   8.2736   8.3183   8.3813   8.4676   8.5705
     8.6413   8.6800   8.7451   8.7851   8.9104   8.9457   9.0631   9.0887
     9.1789   9.2812   9.3025   9.3653   9.4425   9.4898   9.5790   9.8892
    10.1034  10.1888  10.2998  10.4039  10.5104  10.6711  10.8325  10.8803
    10.9391  11.1811  11.4281  12.0629  12.1141  12.1920  12.2884  12.3660
    12.4192  12.4716  12.5934  12.7084  13.2538  13.3694  13.5223  13.7481
    13.9170  14.2450  14.7368  14.9145  15.0020  15.0111  15.2305  15.3576
    15.8953  15.9938  16.2041  16.3696  16.3900  16.6452  16.7012  16.8038
    17.0407  17.0633  17.1775  17.2486  19.9200  20.3736  20.5420  20.9629
    21.2466  21.3581  21.7471  21.8088  21.9864  22.1163  22.3267  22.4932
    22.5837  22.7326  22.7832  22.9023  22.9299  23.0551  23.2598  23.3456

     occupation numbers 
     1.0000   1.0000   1.0000   1.0000   1.0000   1.0000   1.0000   1.0000
     1.0000   1.0000   1.0000   1.0000   1.0000   1.0000   1.0000   1.0000
     1.0000   1.0000   1.0000   1.0000   1.0000   1.0000   1.0000   1.0000
     1.0000   1.0000   1.0000   1.0000   1.0000   1.0000   1.0000   1.0000
     1.0000   1.0000   1.0000   1.0000   1.0000   1.0000   1.0000   1.0000
     1.0000   1.0000   1.0000   1.0000   1.0000   1.0000   1.0000   1.0000
     1.0000   1.0000   1.0000   1.0000   1.0000   1.0000   1.0000   1.0000
     1.0000   1.0000   1.0000   1.0000   1.0000   1.0000   1.0000   1.0000
     1.0000   1.0000   1.0000   1.0000   1.0000   1.0000   1.0000   1.0000
     1.0000   1.0000   1.0000   1.0000   1.0000   1.0000   1.0000   1.0000
     1.0000   1.0000   1.0000   1.0000   1.0000   1.0000   1.0000   1.0000
     1.0000   1.0000   1.0000   1.0000   1.0000   1.0000   1.0000   1.0000
     1.0000   1.0000   1.0000   1.0000   1.0000   1.0000   1.0000   1.0000
     1.0000   1.0000   1.0000   1.0000   1.0000   1.0000   1.0000   1.0000
     1.0000   1.0000   1.0000   1.0000   1.0000   1.0000   1.0000   1.0000
     1.0000   1.0000   1.0000   1.0000   1.0000   1.0000   1.0000   1.0000
     1.0000   1.0000   1.0000   1.0000   1.0000   1.0000   1.0000   1.0000
     1.0000   1.0000   1.0000   1.0000   1.0000   1.0000   1.0000   1.0000
     1.0000   1.0000   0.9998   0.0011   0.0002   0.0000   0.0000   0.0000
     0.0000   0.0000   0.0000   0.0000   0.0000   0.0000   0.0000   0.0000
     0.0000   0.0000   0.0000   0.0000   0.0000   0.0000   0.0000   0.0000
     0.0000   0.0000   0.0000   0.0000   0.0000   0.0000   0.0000   0.0000
     0.0000   0.0000   0.0000   0.0000   0.0000   0.0000   0.0000   0.0000
     0.0000   0.0000   0.0000   0.0000   0.0000   0.0000   0.0000   0.0000
     0.0000   0.0000   0.0000   0.0000   0.0000   0.0000   0.0000   0.0000

          k =-0.1667 0.4811-0.1603 (  5346 PWs)   bands (ev):

   -79.6426 -79.4835 -79.3515 -74.6699 -74.6489 -74.5243 -45.4844 -45.4376
   -45.4329 -45.2988 -45.2938 -45.2906 -45.2381 -45.1342 -45.1298 -40.6727
   -40.6477 -40.6234 -40.6174 -40.5968 -40.5926 -40.5271 -40.4821 -40.4779
   -11.2419 -11.2244 -11.2173 -11.2081 -11.1922 -11.1832 -11.1723 -11.1586
   -11.1527 -11.1485 -11.1355 -11.1287 -11.1221 -11.1171 -11.1109 -11.1039
   -11.0953 -11.0892 -11.0872 -11.0823 -11.0789 -11.0778 -11.0747 -11.0702
   -11.0649 -11.0555 -11.0520 -11.0448 -11.0442 -11.0356  -7.4215  -7.2626
    -7.0756  -6.9379  -6.8737  -6.6696  -6.4649  -6.4142  -6.3444  -6.2730
    -6.1935  -6.1259  -6.0795  -6.0002  -5.9394  -5.8452  -5.7548  -5.6927
     1.0661   1.2002   1.2810   1.4715   1.6169   1.7563   5.1264   5.2788
     5.3792   5.4547   5.6512   5.6731   5.8042   5.8719   5.9576   6.0415
     6.0673   6.1841   6.2482   6.3283   6.4084   6.4861   6.5872   6.7562
     6.8160   6.8571   6.9374   7.0032   7.1096   7.2315   7.3819   7.4312
     7.5129   7.5729   7.6364   7.6606   7.7701   7.8497   7.9035   7.9745
     8.0477   8.1273   8.1751   8.2122   8.3703   8.3975   8.5281   8.5668
     8.6112   8.6503   8.7469   8.7772   8.9294   8.9752   9.0404   9.1413
     9.1852   9.2382   9.3102   9.3544   9.4433   9.5407   9.5736   9.8648
     9.9856  10.2019  10.3415  10.4524  10.5275  10.6437  10.8071  10.8907
    10.9583  11.1685  11.4326  12.0599  12.1221  12.1950  12.2661  12.3706
    12.4296  12.4825  12.6083  12.6800  13.2532  13.3846  13.5708  13.6657
    13.9452  14.2385  14.7343  14.9065  14.9891  15.0405  15.2242  15.3605
    15.8966  15.9832  16.2140  16.3693  16.4003  16.6030  16.7352  16.8131
    17.0190  17.0874  17.1432  17.2681  19.9229  20.3917  20.4831  21.0281
    21.2425  21.3400  21.7434  21.8161  22.0113  22.0904  22.3360  22.4849
    22.5723  22.7117  22.7964  22.8654  22.9405  23.0902  23.2579  23.3381

     occupation numbers 
     1.0000   1.0000   1.0000   1.0000   1.0000   1.0000   1.0000   1.0000
     1.0000   1.0000   1.0000   1.0000   1.0000   1.0000   1.0000   1.0000
     1.0000   1.0000   1.0000   1.0000   1.0000   1.0000   1.0000   1.0000
     1.0000   1.0000   1.0000   1.0000   1.0000   1.0000   1.0000   1.0000
     1.0000   1.0000   1.0000   1.0000   1.0000   1.0000   1.0000   1.0000
     1.0000   1.0000   1.0000   1.0000   1.0000   1.0000   1.0000   1.0000
     1.0000   1.0000   1.0000   1.0000   1.0000   1.0000   1.0000   1.0000
     1.0000   1.0000   1.0000   1.0000   1.0000   1.0000   1.0000   1.0000
     1.0000   1.0000   1.0000   1.0000   1.0000   1.0000   1.0000   1.0000
     1.0000   1.0000   1.0000   1.0000   1.0000   1.0000   1.0000   1.0000
     1.0000   1.0000   1.0000   1.0000   1.0000   1.0000   1.0000   1.0000
     1.0000   1.0000   1.0000   1.0000   1.0000   1.0000   1.0000   1.0000
     1.0000   1.0000   1.0000   1.0000   1.0000   1.0000   1.0000   1.0000
     1.0000   1.0000   1.0000   1.0000   1.0000   1.0000   1.0000   1.0000
     1.0000   1.0000   1.0000   1.0000   1.0000   1.0000   1.0000   1.0000
     1.0000   1.0000   1.0000   1.0000   1.0000   1.0000   1.0000   1.0000
     1.0000   1.0000   1.0000   1.0000   1.0000   1.0000   1.0000   1.0000
     1.0000   1.0000   1.0000   1.0000   1.0000   1.0000   1.0000   1.0000
     1.0000   1.0000   0.9998   0.0012   0.0001   0.0000   0.0000   0.0000
     0.0000   0.0000   0.0000   0.0000   0.0000   0.0000   0.0000   0.0000
     0.0000   0.0000   0.0000   0.0000   0.0000   0.0000   0.0000   0.0000
     0.0000   0.0000   0.0000   0.0000   0.0000   0.0000   0.0000   0.0000
     0.0000   0.0000   0.0000   0.0000   0.0000   0.0000   0.0000   0.0000
     0.0000   0.0000   0.0000   0.0000   0.0000   0.0000   0.0000   0.0000
     0.0000   0.0000   0.0000   0.0000   0.0000   0.0000   0.0000   0.0000

          k = 0.3333-0.5774-0.0801 (  5352 PWs)   bands (ev):

   -79.6429 -79.4838 -79.3517 -74.6701 -74.6492 -74.5246 -45.4834 -45.4377
   -45.4375 -45.2989 -45.2985 -45.2898 -45.2371 -45.1348 -45.1345 -40.6717
   -40.6474 -40.6223 -40.6201 -40.5983 -40.5979 -40.5260 -40.4826 -40.4826
   -11.2227 -11.2219 -11.2151 -11.2117 -11.2079 -11.1958 -11.1641 -11.1541
   -11.1433 -11.1426 -11.1421 -11.1300 -11.1214 -11.1151 -11.1060 -11.1041
   -11.0974 -11.0932 -11.0845 -11.0816 -11.0803 -11.0764 -11.0757 -11.0755
   -11.0650 -11.0547 -11.0525 -11.0491 -11.0442 -11.0414  -7.1705  -7.1563
    -7.1191  -7.0164  -6.8720  -6.8317  -6.4390  -6.4360  -6.4355  -6.2538
    -6.1953  -6.1383  -6.0674  -6.0206  -6.0130  -5.7922  -5.7638  -5.7141
     1.2915   1.3292   1.3524   1.3964   1.4150   1.4692   5.2208   5.2318
     5.3440   5.5066   5.6826   5.7049   5.8183   5.8721   5.9131   6.1350
     6.1929   6.2741   6.2757   6.3760   6.4375   6.5817   6.7608   6.7955
     6.8094   6.8424   6.9065   7.0210   7.1615   7.1835   7.4186   7.4389
     7.4674   7.4770   7.5757   7.6467   7.8088   7.8154   7.8920   7.9705
     8.0070   8.0891   8.2143   8.2903   8.3287   8.3712   8.4349   8.5036
     8.6159   8.6328   8.7039   8.8034   8.8521   8.9411   9.1509   9.1834
     9.2145   9.2939   9.3168   9.3451   9.4701   9.5440   9.5449  10.0038
    10.0409  10.2502  10.3504  10.3533  10.3841  10.6128  10.8215  10.8563
    10.9691  11.2324  11.2400  12.0987  12.1303  12.1488  12.2926  12.3600
    12.4717  12.5700  12.6107  12.6217  13.2557  13.3421  13.4974  13.9261
    13.9583  13.9755  14.7944  14.8033  14.8135  15.0900  15.0932  15.1096
    15.9967  16.0560  16.0882  16.2529  16.3280  16.3426  16.8427  16.8432
    16.9498  16.9517  17.1045  17.1569  20.3599  20.4408  20.6059  21.3183
    21.3442  21.3724  21.8339  21.8454  21.8462  22.2555  22.2621  22.3055
    22.6292  22.6602  22.6782  23.0038  23.0686  23.0836  23.2352  23.2536

     occupation numbers 
     1.0000   1.0000   1.0000   1.0000   1.0000   1.0000   1.0000   1.0000
     1.0000   1.0000   1.0000   1.0000   1.0000   1.0000   1.0000   1.0000
     1.0000   1.0000   1.0000   1.0000   1.0000   1.0000   1.0000   1.0000
     1.0000   1.0000   1.0000   1.0000   1.0000   1.0000   1.0000   1.0000
     1.0000   1.0000   1.0000   1.0000   1.0000   1.0000   1.0000   1.0000
     1.0000   1.0000   1.0000   1.0000   1.0000   1.0000   1.0000   1.0000
     1.0000   1.0000   1.0000   1.0000   1.0000   1.0000   1.0000   1.0000
     1.0000   1.0000   1.0000   1.0000   1.0000   1.0000   1.0000   1.0000
     1.0000   1.0000   1.0000   1.0000   1.0000   1.0000   1.0000   1.0000
     1.0000   1.0000   1.0000   1.0000   1.0000   1.0000   1.0000   1.0000
     1.0000   1.0000   1.0000   1.0000   1.0000   1.0000   1.0000   1.0000
     1.0000   1.0000   1.0000   1.0000   1.0000   1.0000   1.0000   1.0000
     1.0000   1.0000   1.0000   1.0000   1.0000   1.0000   1.0000   1.0000
     1.0000   1.0000   1.0000   1.0000   1.0000   1.0000   1.0000   1.0000
     1.0000   1.0000   1.0000   1.0000   1.0000   1.0000   1.0000   1.0000
     1.0000   1.0000   1.0000   1.0000   1.0000   1.0000   1.0000   1.0000
     1.0000   1.0000   1.0000   1.0000   1.0000   1.0000   1.0000   1.0000
     1.0000   1.0000   1.0000   1.0000   1.0000   1.0000   1.0000   1.0000
     1.0000   1.0000   1.0000   0.0003   0.0001   0.0000   0.0000   0.0000
     0.0000   0.0000   0.0000   0.0000   0.0000   0.0000   0.0000   0.0000
     0.0000   0.0000   0.0000   0.0000   0.0000   0.0000   0.0000   0.0000
     0.0000   0.0000   0.0000   0.0000   0.0000   0.0000   0.0000   0.0000
     0.0000   0.0000   0.0000   0.0000   0.0000   0.0000   0.0000   0.0000
     0.0000   0.0000   0.0000   0.0000   0.0000   0.0000   0.0000   0.0000
     0.0000   0.0000   0.0000   0.0000   0.0000   0.0000   0.0000   0.0000

          k = 0.3333-0.5774-0.1603 (  5349 PWs)   bands (ev):

   -79.6428 -79.4837 -79.3516 -74.6700 -74.6490 -74.5244 -45.4864 -45.4348
   -45.4347 -45.2963 -45.2960 -45.2933 -45.2404 -45.1321 -45.1318 -40.6745
   -40.6496 -40.6196 -40.6183 -40.5959 -40.5957 -40.5291 -40.4802 -40.4800
   -11.2226 -11.2215 -11.2158 -11.2110 -11.2082 -11.1978 -11.1589 -11.1515
   -11.1482 -11.1461 -11.1408 -11.1314 -11.1209 -11.1151 -11.1040 -11.1026
   -11.0973 -11.0956 -11.0835 -11.0801 -11.0793 -11.0772 -11.0765 -11.0764
   -11.0645 -11.0552 -11.0520 -11.0487 -11.0443 -11.0414  -7.1690  -7.1549
    -7.1130  -7.0256  -6.8778  -6.8391  -6.4209  -6.4077  -6.3934  -6.3044
    -6.2434  -6.1781  -6.0387  -5.9955  -5.9921  -5.7961  -5.7675  -5.7177
     1.2958   1.3324   1.3599   1.3925   1.4081   1.4665   5.2254   5.2394
     5.3511   5.5096   5.6882   5.7133   5.8434   5.9091   5.9200   6.1113
     6.1579   6.2686   6.3005   6.3789   6.3981   6.5621   6.7655   6.7752
     6.8239   6.8281   6.8409   7.0606   7.1250   7.1288   7.4165   7.5197
     7.5514   7.5741   7.6108   7.6509   7.7438   7.7873   7.8914   7.9687
     8.0508   8.0922   8.1765   8.2550   8.2586   8.3946   8.4101   8.5087
     8.5902   8.6603   8.6937   8.8231   8.9207   8.9652   9.0865   9.1407
     9.1775   9.2916   9.3298   9.3786   9.4897   9.5421   9.5498  10.0053
    10.0277  10.2658  10.3446  10.3596  10.3828  10.6108  10.8215  10.8535
    10.9732  11.2428  11.2522  12.0928  12.1287  12.1573  12.2944  12.3590
    12.4722  12.5713  12.6153  12.6306  13.2564  13.3363  13.5092  13.9174
    13.9676  13.9871  14.8342  14.8477  14.8516  14.9915  15.0035  15.0231
    16.1478  16.1596  16.1954  16.2336  16.3009  16.3047  16.8352  16.8664
    16.8905  16.9870  17.0308  17.0734  20.3660  20.4455  20.6084  21.3190
    21.3615  21.3735  21.9234  21.9359  21.9403  22.1537  22.1758  22.1913
    22.6714  22.6816  22.7502  22.8705  22.9428  22.9676  23.4294  23.4594

     occupation numbers 
     1.0000   1.0000   1.0000   1.0000   1.0000   1.0000   1.0000   1.0000
     1.0000   1.0000   1.0000   1.0000   1.0000   1.0000   1.0000   1.0000
     1.0000   1.0000   1.0000   1.0000   1.0000   1.0000   1.0000   1.0000
     1.0000   1.0000   1.0000   1.0000   1.0000   1.0000   1.0000   1.0000
     1.0000   1.0000   1.0000   1.0000   1.0000   1.0000   1.0000   1.0000
     1.0000   1.0000   1.0000   1.0000   1.0000   1.0000   1.0000   1.0000
     1.0000   1.0000   1.0000   1.0000   1.0000   1.0000   1.0000   1.0000
     1.0000   1.0000   1.0000   1.0000   1.0000   1.0000   1.0000   1.0000
     1.0000   1.0000   1.0000   1.0000   1.0000   1.0000   1.0000   1.0000
     1.0000   1.0000   1.0000   1.0000   1.0000   1.0000   1.0000   1.0000
     1.0000   1.0000   1.0000   1.0000   1.0000   1.0000   1.0000   1.0000
     1.0000   1.0000   1.0000   1.0000   1.0000   1.0000   1.0000   1.0000
     1.0000   1.0000   1.0000   1.0000   1.0000   1.0000   1.0000   1.0000
     1.0000   1.0000   1.0000   1.0000   1.0000   1.0000   1.0000   1.0000
     1.0000   1.0000   1.0000   1.0000   1.0000   1.0000   1.0000   1.0000
     1.0000   1.0000   1.0000   1.0000   1.0000   1.0000   1.0000   1.0000
     1.0000   1.0000   1.0000   1.0000   1.0000   1.0000   1.0000   1.0000
     1.0000   1.0000   1.0000   1.0000   1.0000   1.0000   1.0000   1.0000
     1.0000   1.0000   1.0000   0.0004   0.0001   0.0000   0.0000   0.0000
     0.0000   0.0000   0.0000   0.0000   0.0000   0.0000   0.0000   0.0000
     0.0000   0.0000   0.0000   0.0000   0.0000   0.0000   0.0000   0.0000
     0.0000   0.0000   0.0000   0.0000   0.0000   0.0000   0.0000   0.0000
     0.0000   0.0000   0.0000   0.0000   0.0000   0.0000   0.0000   0.0000
     0.0000   0.0000   0.0000   0.0000   0.0000   0.0000   0.0000   0.0000
     0.0000   0.0000   0.0000   0.0000   0.0000   0.0000   0.0000   0.0000

     the Fermi energy is    11.7687 ev

!    total energy              =   -3193.11533165 Ry
     estimated scf accuracy    <       0.00022185 Ry
     smearing contrib. (-TS)   =      -0.00020554 Ry
     internal energy E=F+TS    =   -3193.11512611 Ry

     The total energy is F=E-TS. E is the sum of the following terms:
     one-electron contribution =   -1311.14666747 Ry
     hartree contribution      =     840.24633203 Ry
     xc contribution           =    -694.56565672 Ry
     ewald contribution        =   -2027.64913396 Ry

     total magnetization       =    -0.00 Bohr mag/cell
     absolute magnetization    =    27.61 Bohr mag/cell

     convergence has been achieved in  14 iterations

     Writing output data file /home/aldair1809/Documentos/QE/4BFO/UHUBBARD/temp/kpoints_ecutwfc_6.in/bifeo3-scf.save/

     init_run     :    152.65s CPU    154.12s WALL (       1 calls)
     electrons    :   4354.97s CPU   4419.28s WALL (       1 calls)

     Called by init_run:
     wfcinit      :    151.15s CPU    152.50s WALL (       1 calls)
     wfcinit:atom :      0.24s CPU      0.24s WALL (      72 calls)
     wfcinit:wfcr :    148.83s CPU    150.16s WALL (      72 calls)
     potinit      :      0.06s CPU      0.08s WALL (       1 calls)
     hinit0       :      0.98s CPU      1.01s WALL (       1 calls)

     Called by electrons:
     c_bands      :   4236.93s CPU   4298.87s WALL (       3 calls)
     sum_band     :    116.74s CPU    118.55s WALL (       3 calls)
     v_of_rho     :      0.23s CPU      0.24s WALL (       4 calls)
     v_h          :      0.01s CPU      0.01s WALL (       4 calls)
     v_xc         :      0.22s CPU      0.23s WALL (       4 calls)
     newd         :      1.39s CPU      1.47s WALL (       4 calls)
     mix_rho      :      0.03s CPU      0.53s WALL (       3 calls)

     Called by c_bands:
     init_us_2    :      2.80s CPU      2.82s WALL (     501 calls)
     ccgdiagg     :   3658.57s CPU   3715.93s WALL (     285 calls)
     wfcrot       :    724.87s CPU    730.74s WALL (     357 calls)

     Called by sum_band:
     sum_band:wei :      0.04s CPU      0.04s WALL (       3 calls)
     sum_band:loo :    115.32s CPU    117.11s WALL (       3 calls)
     sum_band:buf :      0.46s CPU      0.47s WALL (     216 calls)
     sum_band:ini :      1.19s CPU      1.19s WALL (     216 calls)
     sum_band:cal :     85.74s CPU     85.95s WALL (     216 calls)
     sum_band:bec :      1.07s CPU      1.08s WALL (     216 calls)
     addusdens    :      1.33s CPU      1.36s WALL (       3 calls)
     addusd:skk   :      0.01s CPU      0.01s WALL (      12 calls)
     addusd:dgemm :      0.64s CPU      0.67s WALL (      24 calls)
     addusd:qvan2 :      0.67s CPU      0.67s WALL (      24 calls)

     Called by *cgdiagg:
     h_psi        :   1923.07s CPU   1967.23s WALL (  260006 calls)
     s_psi        :   1264.38s CPU   1270.65s WALL (  519655 calls)

     Called by h_psi:
     h_psi:calbec :    738.28s CPU    756.63s WALL (  260006 calls)
     vloc_psi     :    465.22s CPU    488.74s WALL (  260006 calls)
     add_vuspsi   :    713.75s CPU    716.49s WALL (  260006 calls)
     hs_1psi      :   2102.57s CPU   2144.23s WALL (  259649 calls)
     s_1psi       :   1116.72s CPU   1128.95s WALL (  259649 calls)

     General routines
     calbec       :   1375.82s CPU   1405.44s WALL (  519871 calls)
     fft          :      0.09s CPU      0.09s WALL (      82 calls)
     ffts         :      0.01s CPU      0.01s WALL (       6 calls)
     fftw         :    443.74s CPU    466.76s WALL (  705874 calls)
     davcio       :      0.00s CPU      0.51s WALL (      16 calls)

     Parallel routines
     fft_scatt_xy :     42.25s CPU     44.62s WALL (  705962 calls)
     fft_scatt_yz :     67.86s CPU     72.12s WALL (  705962 calls)

     PWSCF        :      1h15m CPU      1h16m WALL


   This run was terminated on:   9:35:14  30Sep2024            

=------------------------------------------------------------------------------=
   JOB DONE.
=------------------------------------------------------------------------------=
