
     Program PWSCF v.6.7MaX starts on 29Sep2024 at 13:18: 5 

     This program is part of the open-source Quantum ESPRESSO suite
     for quantum simulation of materials; please cite
         "P. Giannozzi et al., J. Phys.:Condens. Matter 21 395502 (2009);
         "P. Giannozzi et al., J. Phys.:Condens. Matter 29 465901 (2017);
          URL http://www.quantum-espresso.org", 
     in publications or presentations arising from this work. More details at
     http://www.quantum-espresso.org/quote

     Parallel version (MPI), running on     4 processors

     MPI processes distributed on     1 nodes
     R & G space division:  proc/nbgrp/npool/nimage =       4
     Waiting for input...
     Reading input from standard input

     Current dimensions of program PWSCF are:
     Max number of different atomic species (ntypx) = 10
     Max number of k-points (npk) =  40000
     Max angular momentum in pseudopotentials (lmaxx) =  3
     Message from routine iosys:
     wrong startingpot: use default (1)

     Subspace diagonalization in iterative solution of the eigenvalue problem:
     one sub-group per band group will be used
     scalapack distributed-memory algorithm (size of sub-group:  2*  2 procs)

     Message from routine setup:
     using ibrav=0 with symmetry is DISCOURAGED, use correct ibrav instead

     Parallelization info
     --------------------
     sticks:   dense  smooth     PW     G-vecs:    dense   smooth      PW
     Min         345     345     94                25867    25867    3740
     Max         346     346     95                25874    25874    3749
     Sum        1381    1381    379               103481   103481   14981



     bravais-lattice index     =            0
     lattice parameter (alat)  =      10.5468  a.u.
     unit-cell volume          =    2535.5110 (a.u.)^3
     number of atoms/cell      =           30
     number of atomic types    =            4
     number of electrons       =       294.00
     number of Kohn-Sham states=          200
     kinetic-energy cutoff     =      45.0000  Ry
     charge density cutoff     =     180.0000  Ry
     scf convergence threshold =      1.0E-03
     mixing beta               =       0.2000
     number of iterations used =            8  plain     mixing
     Exchange-correlation=  SLA  PW   PBX  PBC
                           (   1   4   3   4   0   0   0)

     celldm(1)=  10.546849  celldm(2)=   0.000000  celldm(3)=   0.000000
     celldm(4)=   0.000000  celldm(5)=   0.000000  celldm(6)=   0.000000

     crystal axes: (cart. coord. in units of alat)
               a(1) = (   1.000000  -0.000000  -0.000000 )  
               a(2) = (  -0.500000   0.866025  -0.000000 )  
               a(3) = (   0.000000  -0.000000   2.495552 )  

     reciprocal axes: (cart. coord. in units 2 pi/alat)
               b(1) = (  1.000000  0.577350  0.000000 )  
               b(2) = (  0.000000  1.154701  0.000000 )  
               b(3) = (  0.000000  0.000000  0.400713 )  


     PseudoPot. # 1 for O  read from file:
     /home/aldair1809/Programas/QE/q-e-qe-7.3/pseudo/o_pbe_v1.2.uspp.F.UPF
     MD5 check sum: 734c27235a0248c51dbae37a1fbe46ec
     Pseudo is Ultrasoft + core correction, Zval =  6.0
     Generated by new atomic code, or converted to UPF format
     Using radial grid of  737 points,  5 beta functions with: 
                l(1) =   0
                l(2) =   0
                l(3) =   1
                l(4) =   1
                l(5) =   2
     Q(r) pseudized with  8 coefficients,  rinner =    0.900   0.900   0.900
                                                       0.900   0.900

     PseudoPot. # 2 for Bi read from file:
     /home/aldair1809/Programas/QE/q-e-qe-7.3/pseudo/bi_pbe_v1.uspp.F.UPF
     MD5 check sum: cceb9f28ec65b6d7ff33140f5b0b1758
     Pseudo is Ultrasoft + core correction, Zval = 15.0
     Generated by new atomic code, or converted to UPF format
     Using radial grid of  899 points,  6 beta functions with: 
                l(1) =   0
                l(2) =   0
                l(3) =   1
                l(4) =   1
                l(5) =   2
                l(6) =   2
     Q(r) pseudized with  6 coefficients,  rinner =    1.000   1.000   1.000
                                                       1.000   1.000

     PseudoPot. # 3 for Fe read from file:
     /home/aldair1809/Programas/QE/q-e-qe-7.3/pseudo/fe_pbe_v1.5.uspp.F.UPF
     MD5 check sum: a130daea23fe5165f5d574ae7f82ed95
     Pseudo is Ultrasoft + core correction, Zval = 16.0
     Generated by new atomic code, or converted to UPF format
     Using radial grid of  861 points,  6 beta functions with: 
                l(1) =   0
                l(2) =   0
                l(3) =   1
                l(4) =   1
                l(5) =   2
                l(6) =   2
     Q(r) pseudized with  8 coefficients,  rinner =    1.000   1.000   1.000
                                                       1.000   1.000

     PseudoPot. # 4 for Fe read from file:
     /home/aldair1809/Programas/QE/q-e-qe-7.3/pseudo/fe_pbe_v1.5.uspp.F.UPF
     MD5 check sum: a130daea23fe5165f5d574ae7f82ed95
     Pseudo is Ultrasoft + core correction, Zval = 16.0
     Generated by new atomic code, or converted to UPF format
     Using radial grid of  861 points,  6 beta functions with: 
                l(1) =   0
                l(2) =   0
                l(3) =   1
                l(4) =   1
                l(5) =   2
                l(6) =   2
     Q(r) pseudized with  8 coefficients,  rinner =    1.000   1.000   1.000
                                                       1.000   1.000

     atomic species   valence    mass     pseudopotential
        O              6.00    15.99940     O ( 1.00)
        Bi            15.00   208.98040     Bi( 1.00)
        Fe1           16.00    55.84500     Fe( 1.00)
        Fe2           16.00    55.84500     Fe( 1.00)

     Starting magnetic structure 
     atomic species   magnetization
        O            0.000
        Bi           0.000
        Fe1         -0.800
        Fe2          0.800

      3 Sym. Ops. (no inversion) found


                                    s                        frac. trans.

      isym =  1     identity                                     

 cryst.   s( 1) = (     1          0          0      )
                  (     0          1          0      )
                  (     0          0          1      )

 cart.    s( 1) = (  1.0000000 -0.0000000  0.0000000 )
                  (  0.0000000  1.0000000  0.0000000 )
                  (  0.0000000  0.0000000  1.0000000 )


      isym =  2     120 deg rotation - cryst. axis [0,0,1]       

 cryst.   s( 2) = (     0          1          0      )
                  (    -1         -1          0      )
                  (     0          0          1      )

 cart.    s( 2) = ( -0.5000000 -0.8660254  0.0000000 )
                  (  0.8660254 -0.5000000  0.0000000 )
                  (  0.0000000  0.0000000  1.0000000 )


      isym =  3     120 deg rotation - cryst. axis [0,0,-1]      

 cryst.   s( 3) = (    -1         -1          0      )
                  (     1          0          0      )
                  (     0          0          1      )

 cart.    s( 3) = ( -0.5000000  0.8660254  0.0000000 )
                  ( -0.8660254 -0.5000000  0.0000000 )
                  (  0.0000000  0.0000000  1.0000000 )


   Cartesian axes

     site n.     atom                  positions (alat units)
         1           Fe1 tau(   1) = (   0.0000000   0.0000000   1.9384582  )
         2           Fe1 tau(   2) = (  -0.0000005   0.5773506   2.3615556  )
         3           Fe1 tau(   3) = (   0.5000005   0.2886748   1.5200787  )
         4           Fe2 tau(   4) = (   0.5000005   0.2886748   0.2722626  )
         5           Fe2 tau(   5) = (   0.0000000   0.0000000   0.6907071  )
         6           Fe2 tau(   6) = (  -0.0000005   0.5773506   1.1137452  )
         7           Bi  tau(   7) = (   0.5000005   0.2886748   2.0843143  )
         8           Bi  tau(   8) = (  -0.0000005   0.5773506   1.6713980  )
         9           Bi  tau(   9) = (  -0.0000005   0.5773506   0.4235448  )
        10           Bi  tau(  10) = (   0.0000000   0.0000000   0.0002821  )
        11           Bi  tau(  11) = (   0.0000000   0.0000000   1.2481025  )
        12           Bi  tau(  12) = (   0.5000005   0.2886748   0.8364865  )
        13           O   tau(  13) = (  -0.3105904   0.6551932   2.2011299  )
        14           O   tau(  14) = (   0.0878817   0.2694488   2.2011299  )
        15           O   tau(  15) = (   0.2227102   0.8074080   2.2011299  )
        16           O   tau(  16) = (   0.4087504   0.5589755   1.7846473  )
        17           O   tau(  17) = (   0.3115373   0.0745013   1.7846473  )
        18           O   tau(  18) = (   0.7797108   0.2325494   1.7846473  )
        19           O   tau(  19) = (   0.6884743   0.0745026   0.5368244  )
        20           O   tau(  20) = (   0.5912412   0.5589858   0.5368244  )
        21           O   tau(  21) = (   0.2202830   0.2325379   0.5368244  )
        22           O   tau(  22) = (  -0.0823010   0.8482993   0.1166193  )
        23           O   tau(  23) = (  -0.1934983   0.3706010   0.1166193  )
        24           O   tau(  24) = (   0.2757993   0.5131505   0.1166193  )
        25           O   tau(  25) = (   0.1934855   0.3705936   1.3644430  )
        26           O   tau(  26) = (   0.0823138   0.8482919   1.3644430  )
        27           O   tau(  27) = (  -0.2757993   0.5131653   1.3644430  )
        28           O   tau(  28) = (  -0.0878870   0.2694458   0.9533686  )
        29           O   tau(  29) = (   0.3105971   0.6551893   0.9533686  )
        30           O   tau(  30) = (  -0.2227086   0.8074149   0.9533686  )

   Crystallographic axes

     site n.     atom                  positions (cryst. coord.)
         1           Fe1 tau(   1) = (  0.0000000  0.0000000  0.7767652  )
         2           Fe1 tau(   2) = (  0.3333330  0.6666670  0.9463058  )
         3           Fe1 tau(   3) = (  0.6666670  0.3333330  0.6091152  )
         4           Fe2 tau(   4) = (  0.6666670  0.3333330  0.1090991  )
         5           Fe2 tau(   5) = (  0.0000000  0.0000000  0.2767753  )
         6           Fe2 tau(   6) = (  0.3333330  0.6666670  0.4462921  )
         7           Bi  tau(   7) = (  0.6666670  0.3333330  0.8352117  )
         8           Bi  tau(   8) = (  0.3333330  0.6666670  0.6697508  )
         9           Bi  tau(   9) = (  0.3333330  0.6666670  0.1697199  )
        10           Bi  tau(  10) = (  0.0000000  0.0000000  0.0001130  )
        11           Bi  tau(  11) = (  0.0000000  0.0000000  0.5001308  )
        12           Bi  tau(  12) = (  0.6666670  0.3333330  0.3351910  )
        13           O   tau(  13) = (  0.0676856  0.7565520  0.8820212  )
        14           O   tau(  14) = (  0.2434480  0.3111326  0.8820212  )
        15           O   tau(  15) = (  0.6888674  0.9323144  0.8820212  )
        16           O   tau(  16) = (  0.7314750  0.6454493  0.7151312  )
        17           O   tau(  17) = (  0.3545507  0.0860267  0.7151312  )
        18           O   tau(  18) = (  0.9139733  0.2685250  0.7151312  )
        19           O   tau(  19) = (  0.7314884  0.0860282  0.2151125  )
        20           O   tau(  20) = (  0.9139718  0.6454612  0.2151125  )
        21           O   tau(  21) = (  0.3545388  0.2685116  0.2151125  )
        22           O   tau(  22) = (  0.4074649  0.9795317  0.0467309  )
        23           O   tau(  23) = (  0.0204683  0.4279331  0.0467309  )
        24           O   tau(  24) = (  0.5720669  0.5925351  0.0467309  )
        25           O   tau(  25) = (  0.4074478  0.4279246  0.5467499  )
        26           O   tau(  26) = (  0.5720754  0.9795232  0.5467499  )
        27           O   tau(  27) = (  0.0204768  0.5925522  0.5467499  )
        28           O   tau(  28) = (  0.0676775  0.3111292  0.3820271  )
        29           O   tau(  29) = (  0.6888708  0.7565474  0.3820271  )
        30           O   tau(  30) = (  0.2434526  0.9323225  0.3820271  )

     number of k points=     2  Gaussian smearing, width (Ry)=  0.0100
                       cart. coord. in units 2pi/alat
        k(    1) = (   0.0000000   0.0000000   0.0000000), wk =   0.2500000
        k(    2) = (   0.0000000  -0.5773503   0.0000000), wk =   0.7500000

                       cryst. coord.
        k(    1) = (   0.0000000   0.0000000   0.0000000), wk =   0.2500000
        k(    2) = (   0.0000000  -0.5000000   0.0000000), wk =   0.7500000

     Dense  grid:   103481 G-vectors     FFT dimensions: (  45,  45, 120)

     Dynamical RAM for                 wfc:       9.86 MB

     Dynamical RAM for     wfc (w. buffer):      49.30 MB

     Dynamical RAM for           str. fact:       1.58 MB

     Dynamical RAM for           local pot:       0.00 MB

     Dynamical RAM for          nlocal pot:      22.19 MB

     Dynamical RAM for                qrad:       4.31 MB

     Dynamical RAM for          rho,v,vnew:       5.15 MB

     Dynamical RAM for               rhoin:       1.72 MB

     Dynamical RAM for            rho*nmix:      12.63 MB

     Dynamical RAM for           G-vectors:       1.68 MB

     Dynamical RAM for          h,s,v(r/c):       0.46 MB

     Dynamical RAM for          <psi|beta>:       1.37 MB

     Dynamical RAM for      wfcinit/wfcrot:      21.07 MB

     Dynamical RAM for           addusdens:      80.94 MB

     Estimated static dynamical RAM per process >     103.31 MB

     Estimated max dynamical RAM per process >     184.24 MB

     Estimated total dynamical RAM >     736.98 MB

     Check: negative core charge=   -0.000030
     Generating pointlists ...
     new r_m :   0.1458 (alat units)  1.5374 (a.u.) for type    1
     new r_m :   0.1687 (alat units)  1.7788 (a.u.) for type    2
     new r_m :   0.1458 (alat units)  1.5374 (a.u.) for type    3
     new r_m :   0.1458 (alat units)  1.5374 (a.u.) for type    4

     Initial potential from superposition of free atoms

     starting charge  281.99969, renormalised to  294.00000

     negative rho (up, down):  1.369E-01 1.369E-01
     Starting wfcs are  204 randomized atomic wfcs

     total cpu time spent up to now is       32.6 secs

     Self-consistent Calculation

     iteration #  1     ecut=    45.00 Ry     beta= 0.20
     CG style diagonalization
     ethr =  1.00E-02,  avg # of iterations =  2.6

     negative rho (up, down):  1.324E-01 1.324E-01

     total cpu time spent up to now is      133.2 secs

     total energy              =   -3189.34672125 Ry
     estimated scf accuracy    <      22.81716547 Ry

     total magnetization       =     0.00 Bohr mag/cell
     absolute magnetization    =    30.54 Bohr mag/cell

     iteration #  2     ecut=    45.00 Ry     beta= 0.20
     CG style diagonalization
     ethr =  7.76E-03,  avg # of iterations =  3.0

     negative rho (up, down):  1.277E-01 1.278E-01

     total cpu time spent up to now is      229.1 secs

     total energy              =   -3192.23513622 Ry
     estimated scf accuracy    <       9.33081112 Ry

     total magnetization       =     0.00 Bohr mag/cell
     absolute magnetization    =    29.72 Bohr mag/cell

     iteration #  3     ecut=    45.00 Ry     beta= 0.20
     CG style diagonalization
     ethr =  3.17E-03,  avg # of iterations =  3.1

     negative rho (up, down):  1.288E-01 1.288E-01

     total cpu time spent up to now is      329.5 secs

     total energy              =   -3193.75585222 Ry
     estimated scf accuracy    <       4.38558626 Ry

     total magnetization       =    -0.00 Bohr mag/cell
     absolute magnetization    =    28.26 Bohr mag/cell

     iteration #  4     ecut=    45.00 Ry     beta= 0.20
     CG style diagonalization
     ethr =  1.49E-03,  avg # of iterations =  3.2

     negative rho (up, down):  1.266E-01 1.266E-01

     total cpu time spent up to now is      433.8 secs

     total energy              =   -3194.81367345 Ry
     estimated scf accuracy    <       2.32468641 Ry

     total magnetization       =    -0.00 Bohr mag/cell
     absolute magnetization    =    29.08 Bohr mag/cell

     iteration #  5     ecut=    45.00 Ry     beta= 0.20
     CG style diagonalization
     ethr =  7.91E-04,  avg # of iterations =  3.1

     negative rho (up, down):  1.266E-01 1.266E-01

     total cpu time spent up to now is      542.5 secs

     total energy              =   -3195.11123546 Ry
     estimated scf accuracy    <       0.15494719 Ry

     total magnetization       =    -0.00 Bohr mag/cell
     absolute magnetization    =    27.64 Bohr mag/cell

     iteration #  6     ecut=    45.00 Ry     beta= 0.20
     CG style diagonalization
     c_bands:  3 eigenvalues not converged
     c_bands:  1 eigenvalues not converged
     ethr =  5.27E-05,  avg # of iterations =  3.9

     negative rho (up, down):  1.270E-01 1.270E-01

     total cpu time spent up to now is      672.4 secs

     total energy              =   -3195.01533826 Ry
     estimated scf accuracy    <       1.08058743 Ry

     total magnetization       =     0.00 Bohr mag/cell
     absolute magnetization    =    26.13 Bohr mag/cell

     iteration #  7     ecut=    45.00 Ry     beta= 0.20
     CG style diagonalization
     ethr =  5.27E-05,  avg # of iterations =  3.4

     negative rho (up, down):  1.277E-01 1.277E-01

     total cpu time spent up to now is      785.4 secs

     total energy              =   -3195.10084605 Ry
     estimated scf accuracy    <       0.06952367 Ry

     total magnetization       =    -0.00 Bohr mag/cell
     absolute magnetization    =    27.38 Bohr mag/cell

     iteration #  8     ecut=    45.00 Ry     beta= 0.20
     CG style diagonalization
     ethr =  2.36E-05,  avg # of iterations =  3.4

     negative rho (up, down):  1.278E-01 1.278E-01

     total cpu time spent up to now is      904.0 secs

     total energy              =   -3195.10050265 Ry
     estimated scf accuracy    <       0.12927866 Ry

     total magnetization       =     0.00 Bohr mag/cell
     absolute magnetization    =    27.71 Bohr mag/cell

     iteration #  9     ecut=    45.00 Ry     beta= 0.20
     CG style diagonalization
     c_bands:  1 eigenvalues not converged
     c_bands:  1 eigenvalues not converged
     ethr =  2.36E-05,  avg # of iterations =  3.1

     negative rho (up, down):  1.279E-01 1.279E-01

     total cpu time spent up to now is     1008.1 secs

     total energy              =   -3195.09783513 Ry
     estimated scf accuracy    <       0.03563022 Ry

     total magnetization       =    -0.00 Bohr mag/cell
     absolute magnetization    =    27.58 Bohr mag/cell

     iteration # 10     ecut=    45.00 Ry     beta= 0.20
     CG style diagonalization
     c_bands:  1 eigenvalues not converged
     ethr =  1.21E-05,  avg # of iterations =  3.1

     negative rho (up, down):  1.280E-01 1.280E-01

     total cpu time spent up to now is     1107.9 secs

     total energy              =   -3195.09837044 Ry
     estimated scf accuracy    <       0.00765072 Ry

     total magnetization       =     0.00 Bohr mag/cell
     absolute magnetization    =    27.51 Bohr mag/cell

     iteration # 11     ecut=    45.00 Ry     beta= 0.20
     CG style diagonalization
     c_bands:  2 eigenvalues not converged
     c_bands:  1 eigenvalues not converged
     c_bands:  1 eigenvalues not converged
     ethr =  2.60E-06,  avg # of iterations =  3.5

     negative rho (up, down):  1.280E-01 1.280E-01

     total cpu time spent up to now is     1230.1 secs

     total energy              =   -3195.09973803 Ry
     estimated scf accuracy    <       0.00310649 Ry

     total magnetization       =    -0.00 Bohr mag/cell
     absolute magnetization    =    27.52 Bohr mag/cell

     iteration # 12     ecut=    45.00 Ry     beta= 0.20
     CG style diagonalization
     c_bands:  1 eigenvalues not converged
     c_bands:  2 eigenvalues not converged
     c_bands:  1 eigenvalues not converged
     ethr =  1.06E-06,  avg # of iterations =  3.2

     negative rho (up, down):  1.280E-01 1.280E-01

     total cpu time spent up to now is     1334.9 secs

     total energy              =   -3195.09962005 Ry
     estimated scf accuracy    <       0.00226654 Ry

     total magnetization       =     0.00 Bohr mag/cell
     absolute magnetization    =    27.52 Bohr mag/cell

     iteration # 13     ecut=    45.00 Ry     beta= 0.20
     CG style diagonalization
     c_bands:  1 eigenvalues not converged
     c_bands:  2 eigenvalues not converged
     ethr =  7.71E-07,  avg # of iterations =  3.2

     negative rho (up, down):  1.279E-01 1.279E-01

     Magnetic moment per site:
     atom:    1    charge:   12.9882    magn:   -3.7216    constr:    0.0000
     atom:    2    charge:   12.9994    magn:   -3.6033    constr:    0.0000
     atom:    3    charge:   13.0119    magn:   -3.5954    constr:    0.0000
     atom:    4    charge:   13.0127    magn:    3.5947    constr:    0.0000
     atom:    5    charge:   12.9877    magn:    3.7217    constr:    0.0000
     atom:    6    charge:   13.0008    magn:    3.6024    constr:    0.0000
     atom:    7    charge:   10.4938    magn:   -0.0155    constr:    0.0000
     atom:    8    charge:   10.4941    magn:   -0.0122    constr:    0.0000
     atom:    9    charge:   10.4940    magn:    0.0122    constr:    0.0000
     atom:   10    charge:   10.4931    magn:   -0.0041    constr:    0.0000
     atom:   11    charge:   10.4931    magn:    0.0042    constr:    0.0000
     atom:   12    charge:   10.4938    magn:    0.0155    constr:    0.0000
     atom:   13    charge:    5.3959    magn:   -0.2075    constr:    0.0000
     atom:   14    charge:    5.3959    magn:   -0.2075    constr:    0.0000
     atom:   15    charge:    5.3959    magn:   -0.2075    constr:    0.0000
     atom:   16    charge:    5.3943    magn:   -0.2189    constr:    0.0000
     atom:   17    charge:    5.3943    magn:   -0.2189    constr:    0.0000
     atom:   18    charge:    5.3943    magn:   -0.2189    constr:    0.0000
     atom:   19    charge:    5.3939    magn:    0.2191    constr:    0.0000
     atom:   20    charge:    5.3939    magn:    0.2191    constr:    0.0000
     atom:   21    charge:    5.3939    magn:    0.2191    constr:    0.0000
     atom:   22    charge:    5.3861    magn:    0.0654    constr:    0.0000
     atom:   23    charge:    5.3861    magn:    0.0654    constr:    0.0000
     atom:   24    charge:    5.3861    magn:    0.0654    constr:    0.0000
     atom:   25    charge:    5.3861    magn:   -0.0653    constr:    0.0000
     atom:   26    charge:    5.3861    magn:   -0.0653    constr:    0.0000
     atom:   27    charge:    5.3861    magn:   -0.0653    constr:    0.0000
     atom:   28    charge:    5.3954    magn:    0.2077    constr:    0.0000
     atom:   29    charge:    5.3954    magn:    0.2077    constr:    0.0000
     atom:   30    charge:    5.3954    magn:    0.2077    constr:    0.0000

     total cpu time spent up to now is     1445.3 secs

     End of self-consistent calculation

 ------ SPIN UP ------------


          k = 0.0000 0.0000 0.0000 ( 12921 PWs)   bands (ev):

   -79.2103 -79.0182 -78.9296 -74.2728 -74.2113 -74.1427 -45.2266 -45.1728
   -45.1728 -45.0068 -45.0068 -44.9986 -44.9895 -44.8772 -44.8772 -40.4212
   -40.3717 -40.3717 -40.3503 -40.3148 -40.3148 -40.3023 -40.2431 -40.2431
   -11.2509 -11.2509 -11.2174 -11.2173 -11.1940 -11.1940 -11.1644 -11.1535
   -11.1426 -11.1425 -11.1379 -11.1379 -11.1294 -11.1294 -11.1044 -11.0914
   -11.0828 -11.0828 -11.0745 -11.0745 -11.0712 -11.0712 -11.0613 -11.0590
   -11.0590 -11.0498 -11.0329 -11.0329 -11.0208 -11.0208  -7.8867  -7.5067
    -7.4172  -6.6441  -6.5912  -6.1815  -6.1814  -6.0674  -6.0559  -6.0558
    -5.9633  -5.9632  -5.8632  -5.8631  -5.7181  -5.7180  -5.5482  -5.5482
     0.8319   1.0733   1.1522   1.9293   2.0652   2.8207   4.9581   4.9581
     5.0490   5.4605   5.4605   5.5347   5.5704   5.5705   5.7201   5.7746
     5.7746   5.9623   6.0377   6.0377   6.2323   6.2324   6.2723   6.4286
     6.4287   6.4295   6.5223   6.7452   6.7453   7.0628   7.0628   7.1869
     7.3450   7.6324   7.6324   7.7622   7.8790   7.8790   7.9989   7.9990
     8.1815   8.3453   8.3583   8.3583   8.5327   8.5371   8.5371   8.6624
     8.6888   8.6889   8.8298   8.8298   8.9791   8.9792   9.3301   9.3301
     9.3558   9.3709   9.3710   9.4405   9.4405   9.7829   9.7830  10.1139
    10.2598  10.2599  10.2690  10.4448  10.5446  10.6780  10.7437  10.9744
    10.9745  11.6303  11.6304  12.1391  12.1391  12.3472  12.3558  12.3558
    12.4054  12.4626  12.5006  12.5007  13.3264  13.3264  13.9637  13.9638
    14.5071  14.5071  15.0724  15.1945  15.2951  15.3454  16.3917  16.3917
    16.5195  16.5195  16.5588  16.5588  16.8603  16.9018  17.1075  17.1075
    17.1878  17.1879  17.5976  17.5976  18.2947  19.5805  19.7976  19.9732
    20.6932  20.6932  20.9558  21.0390  21.6880  21.6880  21.7979  21.7979
    22.1219  22.1220  22.8328  22.9886  23.0334  23.0346  23.1881  23.1884

     occupation numbers 
     1.0000   1.0000   1.0000   1.0000   1.0000   1.0000   1.0000   1.0000
     1.0000   1.0000   1.0000   1.0000   1.0000   1.0000   1.0000   1.0000
     1.0000   1.0000   1.0000   1.0000   1.0000   1.0000   1.0000   1.0000
     1.0000   1.0000   1.0000   1.0000   1.0000   1.0000   1.0000   1.0000
     1.0000   1.0000   1.0000   1.0000   1.0000   1.0000   1.0000   1.0000
     1.0000   1.0000   1.0000   1.0000   1.0000   1.0000   1.0000   1.0000
     1.0000   1.0000   1.0000   1.0000   1.0000   1.0000   1.0000   1.0000
     1.0000   1.0000   1.0000   1.0000   1.0000   1.0000   1.0000   1.0000
     1.0000   1.0000   1.0000   1.0000   1.0000   1.0000   1.0000   1.0000
     1.0000   1.0000   1.0000   1.0000   1.0000   1.0000   1.0000   1.0000
     1.0000   1.0000   1.0000   1.0000   1.0000   1.0000   1.0000   1.0000
     1.0000   1.0000   1.0000   1.0000   1.0000   1.0000   1.0000   1.0000
     1.0000   1.0000   1.0000   1.0000   1.0000   1.0000   1.0000   1.0000
     1.0000   1.0000   1.0000   1.0000   1.0000   1.0000   1.0000   1.0000
     1.0000   1.0000   1.0000   1.0000   1.0000   1.0000   1.0000   1.0000
     1.0000   1.0000   1.0000   1.0000   1.0000   1.0000   1.0000   1.0000
     1.0000   1.0000   1.0000   1.0000   1.0000   1.0000   1.0000   1.0000
     1.0000   1.0000   1.0000   1.0000   1.0000   1.0000   1.0000   1.0000
     1.0000   0.9904   0.9903   0.0016   0.0016   0.0000   0.0000   0.0000
     0.0000   0.0000   0.0000   0.0000   0.0000   0.0000   0.0000   0.0000
     0.0000   0.0000   0.0000   0.0000   0.0000   0.0000   0.0000   0.0000
     0.0000   0.0000   0.0000   0.0000   0.0000   0.0000   0.0000   0.0000
     0.0000   0.0000   0.0000   0.0000   0.0000   0.0000   0.0000   0.0000
     0.0000   0.0000   0.0000   0.0000   0.0000   0.0000   0.0000   0.0000
     0.0000   0.0000   0.0000   0.0000   0.0000   0.0000   0.0000   0.0000

          k = 0.0000-0.5774 0.0000 ( 12888 PWs)   bands (ev):

   -79.2103 -79.0182 -78.9296 -74.2728 -74.2113 -74.1427 -45.2266 -45.1728
   -45.1728 -45.0068 -45.0068 -44.9986 -44.9895 -44.8772 -44.8772 -40.4212
   -40.3717 -40.3717 -40.3503 -40.3148 -40.3148 -40.3023 -40.2431 -40.2431
   -11.2463 -11.2178 -11.2007 -11.1943 -11.1897 -11.1807 -11.1715 -11.1592
   -11.1428 -11.1401 -11.1301 -11.1266 -11.1203 -11.1175 -11.1110 -11.1030
   -11.0911 -11.0885 -11.0824 -11.0773 -11.0762 -11.0739 -11.0706 -11.0608
   -11.0593 -11.0488 -11.0470 -11.0378 -11.0358 -11.0240  -7.2297  -7.1899
    -7.0230  -6.8550  -6.8174  -6.4415  -6.4189  -6.3130  -6.1769  -6.0970
    -6.0620  -6.0363  -5.9688  -5.8957  -5.7920  -5.7480  -5.6568  -5.5683
     1.0176   1.2402   1.2622   1.5583   1.6219   1.8344   5.0623   5.3429
     5.3903   5.5105   5.6917   5.7048   5.8107   5.8423   5.8704   6.0360
     6.0691   6.1227   6.2319   6.2985   6.5002   6.5874   6.6589   6.7459
     6.7782   6.8319   7.0027   7.0679   7.1738   7.2320   7.2775   7.4057
     7.4769   7.5318   7.6517   7.7360   7.7891   7.8173   7.9123   7.9514
     8.0797   8.1662   8.2098   8.2923   8.3559   8.3878   8.4912   8.5269
     8.5778   8.6489   8.7230   8.7853   8.9542   9.0857   9.1046   9.1449
     9.2021   9.2422   9.2764   9.3894   9.4317   9.5138   9.5719   9.8815
    10.0694  10.1981  10.3823  10.4112  10.4642  10.6276  10.9051  10.9488
    11.0551  11.0932  11.5647  12.0969  12.1676  12.2842  12.3424  12.3840
    12.4487  12.4996  12.6795  12.7614  13.3692  13.4506  13.6276  13.8078
    13.8902  14.3933  14.5995  15.1372  15.1810  15.3705  15.4498  15.4819
    15.5287  15.5694  15.6496  16.6474  16.6927  16.7730  16.8428  16.9327
    16.9959  17.0647  17.1239  17.2019  20.0277  20.1988  20.4737  20.9848
    21.1199  21.2075  21.6956  21.8428  21.9758  22.2849  22.3247  22.3440
    22.4645  22.5085  22.8314  22.8896  23.1106  23.1782  23.2354  23.2900

     occupation numbers 
     1.0000   1.0000   1.0000   1.0000   1.0000   1.0000   1.0000   1.0000
     1.0000   1.0000   1.0000   1.0000   1.0000   1.0000   1.0000   1.0000
     1.0000   1.0000   1.0000   1.0000   1.0000   1.0000   1.0000   1.0000
     1.0000   1.0000   1.0000   1.0000   1.0000   1.0000   1.0000   1.0000
     1.0000   1.0000   1.0000   1.0000   1.0000   1.0000   1.0000   1.0000
     1.0000   1.0000   1.0000   1.0000   1.0000   1.0000   1.0000   1.0000
     1.0000   1.0000   1.0000   1.0000   1.0000   1.0000   1.0000   1.0000
     1.0000   1.0000   1.0000   1.0000   1.0000   1.0000   1.0000   1.0000
     1.0000   1.0000   1.0000   1.0000   1.0000   1.0000   1.0000   1.0000
     1.0000   1.0000   1.0000   1.0000   1.0000   1.0000   1.0000   1.0000
     1.0000   1.0000   1.0000   1.0000   1.0000   1.0000   1.0000   1.0000
     1.0000   1.0000   1.0000   1.0000   1.0000   1.0000   1.0000   1.0000
     1.0000   1.0000   1.0000   1.0000   1.0000   1.0000   1.0000   1.0000
     1.0000   1.0000   1.0000   1.0000   1.0000   1.0000   1.0000   1.0000
     1.0000   1.0000   1.0000   1.0000   1.0000   1.0000   1.0000   1.0000
     1.0000   1.0000   1.0000   1.0000   1.0000   1.0000   1.0000   1.0000
     1.0000   1.0000   1.0000   1.0000   1.0000   1.0000   1.0000   1.0000
     1.0000   1.0000   1.0000   1.0000   1.0000   1.0000   1.0000   1.0000
     1.0000   1.0000   0.9987   0.0060   0.0006   0.0000   0.0000   0.0000
     0.0000   0.0000   0.0000   0.0000   0.0000   0.0000   0.0000   0.0000
     0.0000   0.0000   0.0000   0.0000   0.0000   0.0000   0.0000   0.0000
     0.0000   0.0000   0.0000   0.0000   0.0000   0.0000   0.0000   0.0000
     0.0000   0.0000   0.0000   0.0000   0.0000   0.0000   0.0000   0.0000
     0.0000   0.0000   0.0000   0.0000   0.0000   0.0000   0.0000   0.0000
     0.0000   0.0000   0.0000   0.0000   0.0000   0.0000   0.0000   0.0000

 ------ SPIN DOWN ----------


          k = 0.0000 0.0000 0.0000 ( 12921 PWs)   bands (ev):

   -79.2130 -79.0145 -78.9283 -74.2697 -74.2144 -74.1435 -45.2293 -45.1755
   -45.1755 -45.0033 -45.0033 -44.9972 -44.9859 -44.8761 -44.8761 -40.4180
   -40.3686 -40.3686 -40.3532 -40.3178 -40.3178 -40.3031 -40.2438 -40.2438
   -11.2516 -11.2516 -11.2171 -11.2171 -11.1939 -11.1939 -11.1665 -11.1515
   -11.1430 -11.1430 -11.1390 -11.1390 -11.1279 -11.1278 -11.1048 -11.0912
   -11.0831 -11.0831 -11.0754 -11.0754 -11.0712 -11.0712 -11.0628 -11.0580
   -11.0579 -11.0482 -11.0341 -11.0341 -11.0193 -11.0193  -7.8883  -7.5071
    -7.4162  -6.6446  -6.5911  -6.1841  -6.1840  -6.0661  -6.0570  -6.0569
    -5.9639  -5.9639  -5.8645  -5.8644  -5.7154  -5.7154  -5.5453  -5.5453
     0.8313   1.0738   1.1520   1.9294   2.0651   2.8208   4.9565   4.9565
     5.0476   5.4597   5.4598   5.5341   5.5707   5.5707   5.7207   5.7739
     5.7739   5.9611   6.0380   6.0380   6.2320   6.2321   6.2719   6.4288
     6.4288   6.4304   6.5239   6.7468   6.7468   7.0622   7.0622   7.1869
     7.3454   7.6343   7.6343   7.7625   7.8802   7.8803   7.9980   7.9980
     8.1829   8.3442   8.3580   8.3581   8.5324   8.5377   8.5377   8.6627
     8.6885   8.6886   8.8299   8.8299   8.9804   8.9805   9.3299   9.3300
     9.3553   9.3710   9.3711   9.4399   9.4400   9.7842   9.7842  10.1146
    10.2591  10.2591  10.2690  10.4466  10.5441  10.6772  10.7426  10.9745
    10.9745  11.6289  11.6289  12.1404  12.1404  12.3485  12.3548  12.3548
    12.4046  12.4636  12.5010  12.5010  13.3273  13.3273  13.9629  13.9629
    14.5079  14.5079  15.0716  15.1938  15.2954  15.3461  16.3907  16.3907
    16.5198  16.5199  16.5588  16.5589  16.8605  16.9017  17.1075  17.1075
    17.1875  17.1875  17.5982  17.5982  18.2941  19.5799  19.7973  19.9734
    20.6929  20.6929  20.9564  21.0395  21.6878  21.6879  21.7982  21.7982
    22.1216  22.1217  22.8313  22.9873  23.0336  23.0338  23.1889  23.2100

     occupation numbers 
     1.0000   1.0000   1.0000   1.0000   1.0000   1.0000   1.0000   1.0000
     1.0000   1.0000   1.0000   1.0000   1.0000   1.0000   1.0000   1.0000
     1.0000   1.0000   1.0000   1.0000   1.0000   1.0000   1.0000   1.0000
     1.0000   1.0000   1.0000   1.0000   1.0000   1.0000   1.0000   1.0000
     1.0000   1.0000   1.0000   1.0000   1.0000   1.0000   1.0000   1.0000
     1.0000   1.0000   1.0000   1.0000   1.0000   1.0000   1.0000   1.0000
     1.0000   1.0000   1.0000   1.0000   1.0000   1.0000   1.0000   1.0000
     1.0000   1.0000   1.0000   1.0000   1.0000   1.0000   1.0000   1.0000
     1.0000   1.0000   1.0000   1.0000   1.0000   1.0000   1.0000   1.0000
     1.0000   1.0000   1.0000   1.0000   1.0000   1.0000   1.0000   1.0000
     1.0000   1.0000   1.0000   1.0000   1.0000   1.0000   1.0000   1.0000
     1.0000   1.0000   1.0000   1.0000   1.0000   1.0000   1.0000   1.0000
     1.0000   1.0000   1.0000   1.0000   1.0000   1.0000   1.0000   1.0000
     1.0000   1.0000   1.0000   1.0000   1.0000   1.0000   1.0000   1.0000
     1.0000   1.0000   1.0000   1.0000   1.0000   1.0000   1.0000   1.0000
     1.0000   1.0000   1.0000   1.0000   1.0000   1.0000   1.0000   1.0000
     1.0000   1.0000   1.0000   1.0000   1.0000   1.0000   1.0000   1.0000
     1.0000   1.0000   1.0000   1.0000   1.0000   1.0000   1.0000   1.0000
     1.0000   0.9907   0.9907   0.0015   0.0015   0.0000   0.0000   0.0000
     0.0000   0.0000   0.0000   0.0000   0.0000   0.0000   0.0000   0.0000
     0.0000   0.0000   0.0000   0.0000   0.0000   0.0000   0.0000   0.0000
     0.0000   0.0000   0.0000   0.0000   0.0000   0.0000   0.0000   0.0000
     0.0000   0.0000   0.0000   0.0000   0.0000   0.0000   0.0000   0.0000
     0.0000   0.0000   0.0000   0.0000   0.0000   0.0000   0.0000   0.0000
     0.0000   0.0000   0.0000   0.0000   0.0000   0.0000   0.0000   0.0000

          k = 0.0000-0.5774 0.0000 ( 12888 PWs)   bands (ev):

   -79.2130 -79.0145 -78.9283 -74.2697 -74.2144 -74.1435 -45.2293 -45.1755
   -45.1755 -45.0033 -45.0033 -44.9972 -44.9859 -44.8761 -44.8761 -40.4180
   -40.3686 -40.3686 -40.3532 -40.3178 -40.3178 -40.3031 -40.2438 -40.2438
   -11.2471 -11.2175 -11.2026 -11.1942 -11.1885 -11.1814 -11.1714 -11.1587
   -11.1433 -11.1393 -11.1316 -11.1280 -11.1191 -11.1171 -11.1114 -11.1013
   -11.0915 -11.0890 -11.0822 -11.0775 -11.0758 -11.0741 -11.0708 -11.0612
   -11.0600 -11.0492 -11.0466 -11.0376 -11.0351 -11.0225  -7.2325  -7.1911
    -7.0224  -6.8554  -6.8158  -6.4416  -6.4190  -6.3154  -6.1775  -6.0971
    -6.0638  -6.0365  -5.9695  -5.8969  -5.7902  -5.7459  -5.6543  -5.5655
     1.0167   1.2405   1.2622   1.5583   1.6214   1.8352   5.0603   5.3417
     5.3892   5.5086   5.6913   5.7046   5.8100   5.8431   5.8707   6.0359
     6.0685   6.1234   6.2315   6.2990   6.5000   6.5882   6.6582   6.7457
     6.7792   6.8329   7.0026   7.0681   7.1742   7.2325   7.2772   7.4062
     7.4768   7.5321   7.6521   7.7366   7.7886   7.8175   7.9135   7.9535
     8.0799   8.1671   8.2095   8.2923   8.3562   8.3879   8.4913   8.5264
     8.5780   8.6492   8.7229   8.7856   8.9545   9.0862   9.1039   9.1456
     9.2021   9.2429   9.2776   9.3903   9.4314   9.5140   9.5714   9.8810
    10.0706  10.1984  10.3813  10.4117  10.4638  10.6278  10.9037  10.9484
    11.0553  11.0920  11.5631  12.0984  12.1684  12.2862  12.3422  12.3835
    12.4477  12.4995  12.6794  12.7621  13.3703  13.4499  13.6295  13.8069
    13.8897  14.3941  14.5989  15.1366  15.1802  15.3706  15.4499  15.4814
    15.5286  15.5702  15.6500  16.6464  16.6929  16.7738  16.8426  16.9329
    16.9947  17.0636  17.1251  17.2032  20.0261  20.1981  20.4730  20.9852
    21.1212  21.2081  21.6951  21.8424  21.9755  22.2849  22.3237  22.3440
    22.4645  22.5095  22.8305  22.8894  23.1104  23.1783  23.2357  23.2899

     occupation numbers 
     1.0000   1.0000   1.0000   1.0000   1.0000   1.0000   1.0000   1.0000
     1.0000   1.0000   1.0000   1.0000   1.0000   1.0000   1.0000   1.0000
     1.0000   1.0000   1.0000   1.0000   1.0000   1.0000   1.0000   1.0000
     1.0000   1.0000   1.0000   1.0000   1.0000   1.0000   1.0000   1.0000
     1.0000   1.0000   1.0000   1.0000   1.0000   1.0000   1.0000   1.0000
     1.0000   1.0000   1.0000   1.0000   1.0000   1.0000   1.0000   1.0000
     1.0000   1.0000   1.0000   1.0000   1.0000   1.0000   1.0000   1.0000
     1.0000   1.0000   1.0000   1.0000   1.0000   1.0000   1.0000   1.0000
     1.0000   1.0000   1.0000   1.0000   1.0000   1.0000   1.0000   1.0000
     1.0000   1.0000   1.0000   1.0000   1.0000   1.0000   1.0000   1.0000
     1.0000   1.0000   1.0000   1.0000   1.0000   1.0000   1.0000   1.0000
     1.0000   1.0000   1.0000   1.0000   1.0000   1.0000   1.0000   1.0000
     1.0000   1.0000   1.0000   1.0000   1.0000   1.0000   1.0000   1.0000
     1.0000   1.0000   1.0000   1.0000   1.0000   1.0000   1.0000   1.0000
     1.0000   1.0000   1.0000   1.0000   1.0000   1.0000   1.0000   1.0000
     1.0000   1.0000   1.0000   1.0000   1.0000   1.0000   1.0000   1.0000
     1.0000   1.0000   1.0000   1.0000   1.0000   1.0000   1.0000   1.0000
     1.0000   1.0000   1.0000   1.0000   1.0000   1.0000   1.0000   1.0000
     1.0000   1.0000   0.9988   0.0058   0.0006   0.0000   0.0000   0.0000
     0.0000   0.0000   0.0000   0.0000   0.0000   0.0000   0.0000   0.0000
     0.0000   0.0000   0.0000   0.0000   0.0000   0.0000   0.0000   0.0000
     0.0000   0.0000   0.0000   0.0000   0.0000   0.0000   0.0000   0.0000
     0.0000   0.0000   0.0000   0.0000   0.0000   0.0000   0.0000   0.0000
     0.0000   0.0000   0.0000   0.0000   0.0000   0.0000   0.0000   0.0000
     0.0000   0.0000   0.0000   0.0000   0.0000   0.0000   0.0000   0.0000

     the Fermi energy is    11.8554 ev

!    total energy              =   -3195.09998462 Ry
     estimated scf accuracy    <       0.00033907 Ry
     smearing contrib. (-TS)   =      -0.00045807 Ry
     internal energy E=F+TS    =   -3195.09952654 Ry

     The total energy is F=E-TS. E is the sum of the following terms:
     one-electron contribution =   -1315.50743493 Ry
     hartree contribution      =     843.26671320 Ry
     xc contribution           =    -695.20967565 Ry
     ewald contribution        =   -2027.64912917 Ry

     total magnetization       =     0.00 Bohr mag/cell
     absolute magnetization    =    27.57 Bohr mag/cell

     convergence has been achieved in  13 iterations

     Writing output data file /home/aldair1809/Documentos/QE/4BFO/UHUBBARD/temp/ecut_ecutwfc_45.in/bifeo3-scf.save/

     init_run     :     31.17s CPU     32.02s WALL (       1 calls)
     electrons    :   1390.26s CPU   1412.74s WALL (       1 calls)

     Called by init_run:
     wfcinit      :     27.89s CPU     28.37s WALL (       1 calls)
     wfcinit:atom :      0.04s CPU      0.08s WALL (       4 calls)
     wfcinit:wfcr :     27.53s CPU     27.88s WALL (       4 calls)
     potinit      :      0.67s CPU      0.71s WALL (       1 calls)
     hinit0       :      1.60s CPU      1.61s WALL (       1 calls)

     Called by electrons:
     c_bands      :   1267.00s CPU   1279.68s WALL (      13 calls)
     sum_band     :    107.82s CPU    113.68s WALL (      13 calls)
     v_of_rho     :      2.32s CPU      2.43s WALL (      14 calls)
     v_h          :      0.07s CPU      0.08s WALL (      14 calls)
     v_xc         :      2.25s CPU      2.35s WALL (      14 calls)
     newd         :     13.59s CPU     17.73s WALL (      14 calls)
     mix_rho      :      0.55s CPU      0.57s WALL (      13 calls)

     Called by c_bands:
     init_us_2    :      1.75s CPU      1.78s WALL (     108 calls)
     ccgdiagg     :    975.06s CPU    985.33s WALL (      52 calls)
     wfcrot       :    317.96s CPU    320.70s WALL (      52 calls)

     Called by sum_band:
     sum_band:wei :      0.01s CPU      0.01s WALL (      13 calls)
     sum_band:loo :     88.07s CPU     89.64s WALL (      13 calls)
     sum_band:buf :      0.31s CPU      0.31s WALL (      52 calls)
     sum_band:ini :      0.83s CPU      0.84s WALL (      52 calls)
     sum_band:cal :     61.66s CPU     61.79s WALL (      52 calls)
     sum_band:bec :      0.29s CPU      0.29s WALL (      52 calls)
     addusdens    :     18.77s CPU     23.02s WALL (      13 calls)
     addusd:skk   :      0.07s CPU      0.08s WALL (      52 calls)
     addusd:dgemm :      9.50s CPU     13.02s WALL (     104 calls)
     addusd:qvan2 :      8.98s CPU      8.98s WALL (     104 calls)

     Called by *cgdiagg:
     h_psi        :    581.58s CPU    591.44s WALL (   23901 calls)
     s_psi        :    354.39s CPU    355.57s WALL (   47750 calls)

     Called by h_psi:
     h_psi:calbec :    217.33s CPU    219.47s WALL (   23901 calls)
     vloc_psi     :    151.93s CPU    159.08s WALL (   23901 calls)
     add_vuspsi   :    211.30s CPU    211.92s WALL (   23901 calls)
     hs_1psi      :    551.45s CPU    559.40s WALL (   23849 calls)
     s_1psi       :    298.45s CPU    300.01s WALL (   23849 calls)

     General routines
     calbec       :    430.90s CPU    434.40s WALL (   47802 calls)
     fft          :      1.21s CPU      1.32s WALL (     292 calls)
     ffts         :      0.11s CPU      0.12s WALL (      26 calls)
     fftw         :    151.40s CPU    159.40s WALL (   78930 calls)

     Parallel routines
     fft_scatt_xy :     27.69s CPU     29.08s WALL (   79248 calls)
     fft_scatt_yz :     32.25s CPU     36.14s WALL (   79248 calls)

     PWSCF        :  23m42.13s CPU  24m 5.78s WALL


   This run was terminated on:  13:42:11  29Sep2024            

=------------------------------------------------------------------------------=
   JOB DONE.
=------------------------------------------------------------------------------=
