
     Program PWSCF v.6.7MaX starts on 29Sep2024 at 16:25:14 

     This program is part of the open-source Quantum ESPRESSO suite
     for quantum simulation of materials; please cite
         "P. Giannozzi et al., J. Phys.:Condens. Matter 21 395502 (2009);
         "P. Giannozzi et al., J. Phys.:Condens. Matter 29 465901 (2017);
          URL http://www.quantum-espresso.org", 
     in publications or presentations arising from this work. More details at
     http://www.quantum-espresso.org/quote

     Parallel version (MPI), running on     4 processors

     MPI processes distributed on     1 nodes
     R & G space division:  proc/nbgrp/npool/nimage =       4
     Waiting for input...
     Reading input from standard input

     Current dimensions of program PWSCF are:
     Max number of different atomic species (ntypx) = 10
     Max number of k-points (npk) =  40000
     Max angular momentum in pseudopotentials (lmaxx) =  3
     Message from routine iosys:
     wrong startingpot: use default (1)

     Subspace diagonalization in iterative solution of the eigenvalue problem:
     one sub-group per band group will be used
     scalapack distributed-memory algorithm (size of sub-group:  2*  2 procs)

     Message from routine setup:
     using ibrav=0 with symmetry is DISCOURAGED, use correct ibrav instead

     Parallelization info
     --------------------
     sticks:   dense  smooth     PW     G-vecs:    dense   smooth      PW
     Min         574     574    156                55581    55581    7778
     Max         575     575    157                55585    55585    7781
     Sum        2299    2299    625               222331   222331   31119



     bravais-lattice index     =            0
     lattice parameter (alat)  =      10.5468  a.u.
     unit-cell volume          =    2535.5110 (a.u.)^3
     number of atoms/cell      =           30
     number of atomic types    =            4
     number of electrons       =       294.00
     number of Kohn-Sham states=          200
     kinetic-energy cutoff     =      75.0000  Ry
     charge density cutoff     =     300.0000  Ry
     scf convergence threshold =      1.0E-03
     mixing beta               =       0.2000
     number of iterations used =            8  plain     mixing
     Exchange-correlation=  SLA  PW   PBX  PBC
                           (   1   4   3   4   0   0   0)

     celldm(1)=  10.546849  celldm(2)=   0.000000  celldm(3)=   0.000000
     celldm(4)=   0.000000  celldm(5)=   0.000000  celldm(6)=   0.000000

     crystal axes: (cart. coord. in units of alat)
               a(1) = (   1.000000  -0.000000  -0.000000 )  
               a(2) = (  -0.500000   0.866025  -0.000000 )  
               a(3) = (   0.000000  -0.000000   2.495552 )  

     reciprocal axes: (cart. coord. in units 2 pi/alat)
               b(1) = (  1.000000  0.577350  0.000000 )  
               b(2) = (  0.000000  1.154701  0.000000 )  
               b(3) = (  0.000000  0.000000  0.400713 )  


     PseudoPot. # 1 for O  read from file:
     /home/aldair1809/Programas/QE/q-e-qe-7.3/pseudo/o_pbe_v1.2.uspp.F.UPF
     MD5 check sum: 734c27235a0248c51dbae37a1fbe46ec
     Pseudo is Ultrasoft + core correction, Zval =  6.0
     Generated by new atomic code, or converted to UPF format
     Using radial grid of  737 points,  5 beta functions with: 
                l(1) =   0
                l(2) =   0
                l(3) =   1
                l(4) =   1
                l(5) =   2
     Q(r) pseudized with  8 coefficients,  rinner =    0.900   0.900   0.900
                                                       0.900   0.900

     PseudoPot. # 2 for Bi read from file:
     /home/aldair1809/Programas/QE/q-e-qe-7.3/pseudo/bi_pbe_v1.uspp.F.UPF
     MD5 check sum: cceb9f28ec65b6d7ff33140f5b0b1758
     Pseudo is Ultrasoft + core correction, Zval = 15.0
     Generated by new atomic code, or converted to UPF format
     Using radial grid of  899 points,  6 beta functions with: 
                l(1) =   0
                l(2) =   0
                l(3) =   1
                l(4) =   1
                l(5) =   2
                l(6) =   2
     Q(r) pseudized with  6 coefficients,  rinner =    1.000   1.000   1.000
                                                       1.000   1.000

     PseudoPot. # 3 for Fe read from file:
     /home/aldair1809/Programas/QE/q-e-qe-7.3/pseudo/fe_pbe_v1.5.uspp.F.UPF
     MD5 check sum: a130daea23fe5165f5d574ae7f82ed95
     Pseudo is Ultrasoft + core correction, Zval = 16.0
     Generated by new atomic code, or converted to UPF format
     Using radial grid of  861 points,  6 beta functions with: 
                l(1) =   0
                l(2) =   0
                l(3) =   1
                l(4) =   1
                l(5) =   2
                l(6) =   2
     Q(r) pseudized with  8 coefficients,  rinner =    1.000   1.000   1.000
                                                       1.000   1.000

     PseudoPot. # 4 for Fe read from file:
     /home/aldair1809/Programas/QE/q-e-qe-7.3/pseudo/fe_pbe_v1.5.uspp.F.UPF
     MD5 check sum: a130daea23fe5165f5d574ae7f82ed95
     Pseudo is Ultrasoft + core correction, Zval = 16.0
     Generated by new atomic code, or converted to UPF format
     Using radial grid of  861 points,  6 beta functions with: 
                l(1) =   0
                l(2) =   0
                l(3) =   1
                l(4) =   1
                l(5) =   2
                l(6) =   2
     Q(r) pseudized with  8 coefficients,  rinner =    1.000   1.000   1.000
                                                       1.000   1.000

     atomic species   valence    mass     pseudopotential
        O              6.00    15.99940     O ( 1.00)
        Bi            15.00   208.98040     Bi( 1.00)
        Fe1           16.00    55.84500     Fe( 1.00)
        Fe2           16.00    55.84500     Fe( 1.00)

     Starting magnetic structure 
     atomic species   magnetization
        O            0.000
        Bi           0.000
        Fe1         -0.800
        Fe2          0.800

      3 Sym. Ops. (no inversion) found


                                    s                        frac. trans.

      isym =  1     identity                                     

 cryst.   s( 1) = (     1          0          0      )
                  (     0          1          0      )
                  (     0          0          1      )

 cart.    s( 1) = (  1.0000000 -0.0000000  0.0000000 )
                  (  0.0000000  1.0000000  0.0000000 )
                  (  0.0000000  0.0000000  1.0000000 )


      isym =  2     120 deg rotation - cryst. axis [0,0,1]       

 cryst.   s( 2) = (     0          1          0      )
                  (    -1         -1          0      )
                  (     0          0          1      )

 cart.    s( 2) = ( -0.5000000 -0.8660254  0.0000000 )
                  (  0.8660254 -0.5000000  0.0000000 )
                  (  0.0000000  0.0000000  1.0000000 )


      isym =  3     120 deg rotation - cryst. axis [0,0,-1]      

 cryst.   s( 3) = (    -1         -1          0      )
                  (     1          0          0      )
                  (     0          0          1      )

 cart.    s( 3) = ( -0.5000000  0.8660254  0.0000000 )
                  ( -0.8660254 -0.5000000  0.0000000 )
                  (  0.0000000  0.0000000  1.0000000 )


   Cartesian axes

     site n.     atom                  positions (alat units)
         1           Fe1 tau(   1) = (   0.0000000   0.0000000   1.9384582  )
         2           Fe1 tau(   2) = (  -0.0000005   0.5773506   2.3615556  )
         3           Fe1 tau(   3) = (   0.5000005   0.2886748   1.5200787  )
         4           Fe2 tau(   4) = (   0.5000005   0.2886748   0.2722626  )
         5           Fe2 tau(   5) = (   0.0000000   0.0000000   0.6907071  )
         6           Fe2 tau(   6) = (  -0.0000005   0.5773506   1.1137452  )
         7           Bi  tau(   7) = (   0.5000005   0.2886748   2.0843143  )
         8           Bi  tau(   8) = (  -0.0000005   0.5773506   1.6713980  )
         9           Bi  tau(   9) = (  -0.0000005   0.5773506   0.4235448  )
        10           Bi  tau(  10) = (   0.0000000   0.0000000   0.0002821  )
        11           Bi  tau(  11) = (   0.0000000   0.0000000   1.2481025  )
        12           Bi  tau(  12) = (   0.5000005   0.2886748   0.8364865  )
        13           O   tau(  13) = (  -0.3105904   0.6551932   2.2011299  )
        14           O   tau(  14) = (   0.0878817   0.2694488   2.2011299  )
        15           O   tau(  15) = (   0.2227102   0.8074080   2.2011299  )
        16           O   tau(  16) = (   0.4087504   0.5589755   1.7846473  )
        17           O   tau(  17) = (   0.3115373   0.0745013   1.7846473  )
        18           O   tau(  18) = (   0.7797108   0.2325494   1.7846473  )
        19           O   tau(  19) = (   0.6884743   0.0745026   0.5368244  )
        20           O   tau(  20) = (   0.5912412   0.5589858   0.5368244  )
        21           O   tau(  21) = (   0.2202830   0.2325379   0.5368244  )
        22           O   tau(  22) = (  -0.0823010   0.8482993   0.1166193  )
        23           O   tau(  23) = (  -0.1934983   0.3706010   0.1166193  )
        24           O   tau(  24) = (   0.2757993   0.5131505   0.1166193  )
        25           O   tau(  25) = (   0.1934855   0.3705936   1.3644430  )
        26           O   tau(  26) = (   0.0823138   0.8482919   1.3644430  )
        27           O   tau(  27) = (  -0.2757993   0.5131653   1.3644430  )
        28           O   tau(  28) = (  -0.0878870   0.2694458   0.9533686  )
        29           O   tau(  29) = (   0.3105971   0.6551893   0.9533686  )
        30           O   tau(  30) = (  -0.2227086   0.8074149   0.9533686  )

   Crystallographic axes

     site n.     atom                  positions (cryst. coord.)
         1           Fe1 tau(   1) = (  0.0000000  0.0000000  0.7767652  )
         2           Fe1 tau(   2) = (  0.3333330  0.6666670  0.9463058  )
         3           Fe1 tau(   3) = (  0.6666670  0.3333330  0.6091152  )
         4           Fe2 tau(   4) = (  0.6666670  0.3333330  0.1090991  )
         5           Fe2 tau(   5) = (  0.0000000  0.0000000  0.2767753  )
         6           Fe2 tau(   6) = (  0.3333330  0.6666670  0.4462921  )
         7           Bi  tau(   7) = (  0.6666670  0.3333330  0.8352117  )
         8           Bi  tau(   8) = (  0.3333330  0.6666670  0.6697508  )
         9           Bi  tau(   9) = (  0.3333330  0.6666670  0.1697199  )
        10           Bi  tau(  10) = (  0.0000000  0.0000000  0.0001130  )
        11           Bi  tau(  11) = (  0.0000000  0.0000000  0.5001308  )
        12           Bi  tau(  12) = (  0.6666670  0.3333330  0.3351910  )
        13           O   tau(  13) = (  0.0676856  0.7565520  0.8820212  )
        14           O   tau(  14) = (  0.2434480  0.3111326  0.8820212  )
        15           O   tau(  15) = (  0.6888674  0.9323144  0.8820212  )
        16           O   tau(  16) = (  0.7314750  0.6454493  0.7151312  )
        17           O   tau(  17) = (  0.3545507  0.0860267  0.7151312  )
        18           O   tau(  18) = (  0.9139733  0.2685250  0.7151312  )
        19           O   tau(  19) = (  0.7314884  0.0860282  0.2151125  )
        20           O   tau(  20) = (  0.9139718  0.6454612  0.2151125  )
        21           O   tau(  21) = (  0.3545388  0.2685116  0.2151125  )
        22           O   tau(  22) = (  0.4074649  0.9795317  0.0467309  )
        23           O   tau(  23) = (  0.0204683  0.4279331  0.0467309  )
        24           O   tau(  24) = (  0.5720669  0.5925351  0.0467309  )
        25           O   tau(  25) = (  0.4074478  0.4279246  0.5467499  )
        26           O   tau(  26) = (  0.5720754  0.9795232  0.5467499  )
        27           O   tau(  27) = (  0.0204768  0.5925522  0.5467499  )
        28           O   tau(  28) = (  0.0676775  0.3111292  0.3820271  )
        29           O   tau(  29) = (  0.6888708  0.7565474  0.3820271  )
        30           O   tau(  30) = (  0.2434526  0.9323225  0.3820271  )

     number of k points=     2  Gaussian smearing, width (Ry)=  0.0100
                       cart. coord. in units 2pi/alat
        k(    1) = (   0.0000000   0.0000000   0.0000000), wk =   0.2500000
        k(    2) = (   0.0000000  -0.5773503   0.0000000), wk =   0.7500000

                       cryst. coord.
        k(    1) = (   0.0000000   0.0000000   0.0000000), wk =   0.2500000
        k(    2) = (   0.0000000  -0.5000000   0.0000000), wk =   0.7500000

     Dense  grid:   222331 G-vectors     FFT dimensions: (  60,  60, 150)

     Dynamical RAM for                 wfc:      21.22 MB

     Dynamical RAM for     wfc (w. buffer):     106.08 MB

     Dynamical RAM for           str. fact:       3.39 MB

     Dynamical RAM for           local pot:       0.00 MB

     Dynamical RAM for          nlocal pot:      47.74 MB

     Dynamical RAM for                qrad:       5.56 MB

     Dynamical RAM for          rho,v,vnew:      11.35 MB

     Dynamical RAM for               rhoin:       3.78 MB

     Dynamical RAM for            rho*nmix:      27.14 MB

     Dynamical RAM for           G-vectors:       3.60 MB

     Dynamical RAM for          h,s,v(r/c):       0.46 MB

     Dynamical RAM for          <psi|beta>:       1.37 MB

     Dynamical RAM for      wfcinit/wfcrot:      44.23 MB

     Dynamical RAM for           addusdens:     173.86 MB

     Estimated static dynamical RAM per process >     219.15 MB

     Estimated max dynamical RAM per process >     393.01 MB

     Estimated total dynamical RAM >       1.54 GB

     Check: negative core charge=   -0.000018
     Generating pointlists ...
     new r_m :   0.1458 (alat units)  1.5374 (a.u.) for type    1
     new r_m :   0.1687 (alat units)  1.7788 (a.u.) for type    2
     new r_m :   0.1458 (alat units)  1.5374 (a.u.) for type    3
     new r_m :   0.1458 (alat units)  1.5374 (a.u.) for type    4

     Initial potential from superposition of free atoms

     starting charge  281.99969, renormalised to  294.00000

     negative rho (up, down):  1.270E-01 1.270E-01
     Starting wfcs are  204 randomized atomic wfcs

     total cpu time spent up to now is       53.8 secs

     Self-consistent Calculation

     iteration #  1     ecut=    75.00 Ry     beta= 0.20
     CG style diagonalization
     ethr =  1.00E-02,  avg # of iterations =  2.6

     negative rho (up, down):  1.229E-01 1.229E-01

     total cpu time spent up to now is      225.5 secs

     total energy              =   -3189.36542667 Ry
     estimated scf accuracy    <      22.84011627 Ry

     total magnetization       =     0.00 Bohr mag/cell
     absolute magnetization    =    30.54 Bohr mag/cell

     iteration #  2     ecut=    75.00 Ry     beta= 0.20
     CG style diagonalization
     ethr =  7.77E-03,  avg # of iterations =  3.0

     negative rho (up, down):  1.188E-01 1.188E-01

     total cpu time spent up to now is      404.5 secs

     total energy              =   -3192.25483102 Ry
     estimated scf accuracy    <       9.33609157 Ry

     total magnetization       =    -0.00 Bohr mag/cell
     absolute magnetization    =    29.72 Bohr mag/cell

     iteration #  3     ecut=    75.00 Ry     beta= 0.20
     CG style diagonalization
     ethr =  3.18E-03,  avg # of iterations =  3.1

     negative rho (up, down):  1.198E-01 1.198E-01

     total cpu time spent up to now is      587.7 secs

     total energy              =   -3193.78214134 Ry
     estimated scf accuracy    <       4.38638998 Ry

     total magnetization       =    -0.00 Bohr mag/cell
     absolute magnetization    =    28.26 Bohr mag/cell

     iteration #  4     ecut=    75.00 Ry     beta= 0.20
     CG style diagonalization
     ethr =  1.49E-03,  avg # of iterations =  3.3

     negative rho (up, down):  1.179E-01 1.179E-01

     total cpu time spent up to now is      779.3 secs

     total energy              =   -3194.82595664 Ry
     estimated scf accuracy    <       2.37028706 Ry

     total magnetization       =     0.00 Bohr mag/cell
     absolute magnetization    =    29.09 Bohr mag/cell

     iteration #  5     ecut=    75.00 Ry     beta= 0.20
     CG style diagonalization
     ethr =  8.06E-04,  avg # of iterations =  3.1

     negative rho (up, down):  1.180E-01 1.180E-01

     total cpu time spent up to now is      963.0 secs

     total energy              =   -3195.13702652 Ry
     estimated scf accuracy    <       0.16036419 Ry

     total magnetization       =    -0.00 Bohr mag/cell
     absolute magnetization    =    27.62 Bohr mag/cell

     iteration #  6     ecut=    75.00 Ry     beta= 0.20
     CG style diagonalization
     c_bands:  1 eigenvalues not converged
     c_bands:  3 eigenvalues not converged
     ethr =  5.45E-05,  avg # of iterations =  3.9

     negative rho (up, down):  1.184E-01 1.184E-01

     total cpu time spent up to now is     1194.2 secs

     total energy              =   -3195.03940360 Ry
     estimated scf accuracy    <       1.10228062 Ry

     total magnetization       =    -0.00 Bohr mag/cell
     absolute magnetization    =    26.09 Bohr mag/cell

     iteration #  7     ecut=    75.00 Ry     beta= 0.20
     CG style diagonalization
     ethr =  5.45E-05,  avg # of iterations =  3.4

     negative rho (up, down):  1.190E-01 1.190E-01

     total cpu time spent up to now is     1402.8 secs

     total energy              =   -3195.12351339 Ry
     estimated scf accuracy    <       0.06965658 Ry

     total magnetization       =    -0.00 Bohr mag/cell
     absolute magnetization    =    27.37 Bohr mag/cell

     iteration #  8     ecut=    75.00 Ry     beta= 0.20
     CG style diagonalization
     c_bands:  1 eigenvalues not converged
     ethr =  2.37E-05,  avg # of iterations =  3.4

     negative rho (up, down):  1.191E-01 1.191E-01

     total cpu time spent up to now is     1611.4 secs

     total energy              =   -3195.12398122 Ry
     estimated scf accuracy    <       0.13353743 Ry

     total magnetization       =     0.00 Bohr mag/cell
     absolute magnetization    =    27.72 Bohr mag/cell

     iteration #  9     ecut=    75.00 Ry     beta= 0.20
     CG style diagonalization
     ethr =  2.37E-05,  avg # of iterations =  3.1

     negative rho (up, down):  1.192E-01 1.192E-01

     total cpu time spent up to now is     1794.8 secs

     total energy              =   -3195.12166695 Ry
     estimated scf accuracy    <       0.03707092 Ry

     total magnetization       =    -0.00 Bohr mag/cell
     absolute magnetization    =    27.58 Bohr mag/cell

     iteration # 10     ecut=    75.00 Ry     beta= 0.20
     CG style diagonalization
     c_bands:  1 eigenvalues not converged
     ethr =  1.26E-05,  avg # of iterations =  3.1

     negative rho (up, down):  1.193E-01 1.193E-01

     total cpu time spent up to now is     2018.2 secs

     total energy              =   -3195.12176448 Ry
     estimated scf accuracy    <       0.00851693 Ry

     total magnetization       =     0.00 Bohr mag/cell
     absolute magnetization    =    27.52 Bohr mag/cell

     iteration # 11     ecut=    75.00 Ry     beta= 0.20
     CG style diagonalization
     c_bands:  1 eigenvalues not converged
     c_bands:  2 eigenvalues not converged
     c_bands:  1 eigenvalues not converged
     ethr =  2.90E-06,  avg # of iterations =  3.4

     negative rho (up, down):  1.193E-01 1.193E-01

     total cpu time spent up to now is     2245.2 secs

     total energy              =   -3195.12317868 Ry
     estimated scf accuracy    <       0.00253391 Ry

     total magnetization       =    -0.00 Bohr mag/cell
     absolute magnetization    =    27.53 Bohr mag/cell

     iteration # 12     ecut=    75.00 Ry     beta= 0.20
     CG style diagonalization
     c_bands:  1 eigenvalues not converged
     c_bands:  1 eigenvalues not converged
     c_bands:  2 eigenvalues not converged
     ethr =  8.62E-07,  avg # of iterations =  3.2

     negative rho (up, down):  1.193E-01 1.192E-01

     total cpu time spent up to now is     2453.8 secs

     total energy              =   -3195.12322018 Ry
     estimated scf accuracy    <       0.00166915 Ry

     total magnetization       =     0.00 Bohr mag/cell
     absolute magnetization    =    27.52 Bohr mag/cell

     iteration # 13     ecut=    75.00 Ry     beta= 0.20
     CG style diagonalization
     c_bands:  1 eigenvalues not converged
     c_bands:  1 eigenvalues not converged
     c_bands:  1 eigenvalues not converged
     ethr =  5.68E-07,  avg # of iterations =  3.2

     negative rho (up, down):  1.192E-01 1.192E-01

     Magnetic moment per site:
     atom:    1    charge:   12.9896    magn:   -3.7204    constr:    0.0000
     atom:    2    charge:   13.0005    magn:   -3.6035    constr:    0.0000
     atom:    3    charge:   13.0131    magn:   -3.5950    constr:    0.0000
     atom:    4    charge:   13.0138    magn:    3.5944    constr:    0.0000
     atom:    5    charge:   12.9883    magn:    3.7211    constr:    0.0000
     atom:    6    charge:   13.0021    magn:    3.6025    constr:    0.0000
     atom:    7    charge:   10.4959    magn:   -0.0155    constr:    0.0000
     atom:    8    charge:   10.4951    magn:   -0.0122    constr:    0.0000
     atom:    9    charge:   10.4951    magn:    0.0123    constr:    0.0000
     atom:   10    charge:   10.4944    magn:   -0.0041    constr:    0.0000
     atom:   11    charge:   10.4944    magn:    0.0042    constr:    0.0000
     atom:   12    charge:   10.4958    magn:    0.0156    constr:    0.0000
     atom:   13    charge:    5.3962    magn:   -0.2075    constr:    0.0000
     atom:   14    charge:    5.3962    magn:   -0.2075    constr:    0.0000
     atom:   15    charge:    5.3962    magn:   -0.2075    constr:    0.0000
     atom:   16    charge:    5.3946    magn:   -0.2191    constr:    0.0000
     atom:   17    charge:    5.3946    magn:   -0.2191    constr:    0.0000
     atom:   18    charge:    5.3946    magn:   -0.2191    constr:    0.0000
     atom:   19    charge:    5.3941    magn:    0.2191    constr:    0.0000
     atom:   20    charge:    5.3941    magn:    0.2191    constr:    0.0000
     atom:   21    charge:    5.3941    magn:    0.2191    constr:    0.0000
     atom:   22    charge:    5.3855    magn:    0.0654    constr:    0.0000
     atom:   23    charge:    5.3855    magn:    0.0654    constr:    0.0000
     atom:   24    charge:    5.3855    magn:    0.0654    constr:    0.0000
     atom:   25    charge:    5.3855    magn:   -0.0654    constr:    0.0000
     atom:   26    charge:    5.3855    magn:   -0.0654    constr:    0.0000
     atom:   27    charge:    5.3855    magn:   -0.0654    constr:    0.0000
     atom:   28    charge:    5.3956    magn:    0.2077    constr:    0.0000
     atom:   29    charge:    5.3956    magn:    0.2077    constr:    0.0000
     atom:   30    charge:    5.3956    magn:    0.2077    constr:    0.0000

     total cpu time spent up to now is     2660.1 secs

     End of self-consistent calculation

 ------ SPIN UP ------------


          k = 0.0000 0.0000 0.0000 ( 27835 PWs)   bands (ev):

   -79.2161 -79.0231 -78.9351 -74.2808 -74.2139 -74.1478 -45.2323 -45.1788
   -45.1788 -45.0120 -45.0120 -45.0039 -44.9945 -44.8831 -44.8831 -40.4289
   -40.3796 -40.3796 -40.3530 -40.3175 -40.3175 -40.3072 -40.2482 -40.2482
   -11.2513 -11.2513 -11.2180 -11.2180 -11.1946 -11.1946 -11.1646 -11.1546
   -11.1432 -11.1432 -11.1384 -11.1384 -11.1305 -11.1305 -11.1052 -11.0920
   -11.0836 -11.0836 -11.0752 -11.0752 -11.0720 -11.0720 -11.0619 -11.0599
   -11.0599 -11.0507 -11.0336 -11.0336 -11.0216 -11.0216  -7.8851  -7.5052
    -7.4162  -6.6425  -6.5899  -6.1793  -6.1792  -6.0663  -6.0541  -6.0540
    -5.9617  -5.9617  -5.8617  -5.8616  -5.7174  -5.7174  -5.5476  -5.5476
     0.8320   1.0733   1.1523   1.9294   2.0653   2.8206   4.9577   4.9577
     5.0491   5.4597   5.4597   5.5344   5.5694   5.5694   5.7193   5.7733
     5.7733   5.9617   6.0362   6.0363   6.2310   6.2310   6.2717   6.4280
     6.4281   6.4285   6.5212   6.7437   6.7437   7.0600   7.0600   7.1862
     7.3440   7.6300   7.6300   7.7597   7.8768   7.8768   7.9967   7.9967
     8.1794   8.3425   8.3567   8.3568   8.5317   8.5347   8.5348   8.6611
     8.6869   8.6869   8.8279   8.8280   8.9771   8.9771   9.3292   9.3292
     9.3549   9.3702   9.3703   9.4396   9.4396   9.7819   9.7819  10.1134
    10.2575  10.2575  10.2683  10.4434  10.5437  10.6770  10.7430  10.9717
    10.9718  11.6274  11.6275  12.1342  12.1342  12.3429  12.3526  12.3526
    12.4033  12.4590  12.4963  12.4963  13.3215  13.3215  13.9601  13.9601
    14.5022  14.5023  15.0729  15.1945  15.2951  15.3452  16.3915  16.3916
    16.5190  16.5191  16.5583  16.5584  16.8599  16.9015  17.1069  17.1069
    17.1872  17.1873  17.5967  17.5967  18.2939  19.5804  19.7968  19.9720
    20.6929  20.6929  20.9549  21.0384  21.6876  21.6876  21.7973  21.7974
    22.1221  22.1222  22.8328  22.9877  23.0332  23.0340  23.1848  23.1926

     occupation numbers 
     1.0000   1.0000   1.0000   1.0000   1.0000   1.0000   1.0000   1.0000
     1.0000   1.0000   1.0000   1.0000   1.0000   1.0000   1.0000   1.0000
     1.0000   1.0000   1.0000   1.0000   1.0000   1.0000   1.0000   1.0000
     1.0000   1.0000   1.0000   1.0000   1.0000   1.0000   1.0000   1.0000
     1.0000   1.0000   1.0000   1.0000   1.0000   1.0000   1.0000   1.0000
     1.0000   1.0000   1.0000   1.0000   1.0000   1.0000   1.0000   1.0000
     1.0000   1.0000   1.0000   1.0000   1.0000   1.0000   1.0000   1.0000
     1.0000   1.0000   1.0000   1.0000   1.0000   1.0000   1.0000   1.0000
     1.0000   1.0000   1.0000   1.0000   1.0000   1.0000   1.0000   1.0000
     1.0000   1.0000   1.0000   1.0000   1.0000   1.0000   1.0000   1.0000
     1.0000   1.0000   1.0000   1.0000   1.0000   1.0000   1.0000   1.0000
     1.0000   1.0000   1.0000   1.0000   1.0000   1.0000   1.0000   1.0000
     1.0000   1.0000   1.0000   1.0000   1.0000   1.0000   1.0000   1.0000
     1.0000   1.0000   1.0000   1.0000   1.0000   1.0000   1.0000   1.0000
     1.0000   1.0000   1.0000   1.0000   1.0000   1.0000   1.0000   1.0000
     1.0000   1.0000   1.0000   1.0000   1.0000   1.0000   1.0000   1.0000
     1.0000   1.0000   1.0000   1.0000   1.0000   1.0000   1.0000   1.0000
     1.0000   1.0000   1.0000   1.0000   1.0000   1.0000   1.0000   1.0000
     1.0000   0.9901   0.9901   0.0017   0.0017   0.0000   0.0000   0.0000
     0.0000   0.0000   0.0000   0.0000   0.0000   0.0000   0.0000   0.0000
     0.0000   0.0000   0.0000   0.0000   0.0000   0.0000   0.0000   0.0000
     0.0000   0.0000   0.0000   0.0000   0.0000   0.0000   0.0000   0.0000
     0.0000   0.0000   0.0000   0.0000   0.0000   0.0000   0.0000   0.0000
     0.0000   0.0000   0.0000   0.0000   0.0000   0.0000   0.0000   0.0000
     0.0000   0.0000   0.0000   0.0000   0.0000   0.0000   0.0000   0.0000

          k = 0.0000-0.5774 0.0000 ( 27780 PWs)   bands (ev):

   -79.2161 -79.0231 -78.9351 -74.2808 -74.2139 -74.1478 -45.2323 -45.1788
   -45.1788 -45.0120 -45.0120 -45.0039 -44.9945 -44.8831 -44.8831 -40.4289
   -40.3796 -40.3796 -40.3530 -40.3175 -40.3175 -40.3072 -40.2482 -40.2482
   -11.2467 -11.2184 -11.2009 -11.1950 -11.1906 -11.1812 -11.1721 -11.1598
   -11.1434 -11.1409 -11.1305 -11.1270 -11.1213 -11.1183 -11.1116 -11.1039
   -11.0918 -11.0893 -11.0832 -11.0781 -11.0770 -11.0747 -11.0712 -11.0617
   -11.0598 -11.0497 -11.0477 -11.0388 -11.0366 -11.0249  -7.2278  -7.1882
    -7.0218  -6.8537  -6.8164  -6.4401  -6.4175  -6.3110  -6.1752  -6.0955
    -6.0602  -6.0346  -5.9676  -5.8941  -5.7912  -5.7472  -5.6560  -5.5676
     1.0178   1.2402   1.2624   1.5584   1.6220   1.8344   5.0616   5.3420
     5.3893   5.5091   5.6907   5.7035   5.8104   5.8416   5.8696   6.0349
     6.0679   6.1215   6.2306   6.2971   6.4992   6.5860   6.6570   6.7444
     6.7769   6.8306   7.0013   7.0660   7.1716   7.2305   7.2760   7.4046
     7.4755   7.5295   7.6500   7.7346   7.7874   7.8158   7.9104   7.9500
     8.0777   8.1643   8.2082   8.2902   8.3545   8.3861   8.4900   8.5255
     8.5767   8.6471   8.7214   8.7837   8.9530   9.0844   9.1037   9.1438
     9.2011   9.2410   9.2749   9.3879   9.4305   9.5123   9.5707   9.8792
    10.0676  10.1967  10.3806  10.4092  10.4631  10.6257  10.9034  10.9464
    11.0530  11.0910  11.5618  12.0922  12.1633  12.2789  12.3391  12.3808
    12.4458  12.4963  12.6761  12.7573  13.3644  13.4474  13.6231  13.8043
    13.8866  14.3890  14.5983  15.1370  15.1807  15.3702  15.4495  15.4815
    15.5283  15.5689  15.6493  16.6472  16.6922  16.7725  16.8425  16.9322
    16.9957  17.0644  17.1231  17.2011  20.0267  20.1978  20.4728  20.9840
    21.1183  21.2068  21.6953  21.8422  21.9755  22.2846  22.3248  22.3438
    22.4645  22.5082  22.8307  22.8891  23.1109  23.1774  23.2349  23.2897

     occupation numbers 
     1.0000   1.0000   1.0000   1.0000   1.0000   1.0000   1.0000   1.0000
     1.0000   1.0000   1.0000   1.0000   1.0000   1.0000   1.0000   1.0000
     1.0000   1.0000   1.0000   1.0000   1.0000   1.0000   1.0000   1.0000
     1.0000   1.0000   1.0000   1.0000   1.0000   1.0000   1.0000   1.0000
     1.0000   1.0000   1.0000   1.0000   1.0000   1.0000   1.0000   1.0000
     1.0000   1.0000   1.0000   1.0000   1.0000   1.0000   1.0000   1.0000
     1.0000   1.0000   1.0000   1.0000   1.0000   1.0000   1.0000   1.0000
     1.0000   1.0000   1.0000   1.0000   1.0000   1.0000   1.0000   1.0000
     1.0000   1.0000   1.0000   1.0000   1.0000   1.0000   1.0000   1.0000
     1.0000   1.0000   1.0000   1.0000   1.0000   1.0000   1.0000   1.0000
     1.0000   1.0000   1.0000   1.0000   1.0000   1.0000   1.0000   1.0000
     1.0000   1.0000   1.0000   1.0000   1.0000   1.0000   1.0000   1.0000
     1.0000   1.0000   1.0000   1.0000   1.0000   1.0000   1.0000   1.0000
     1.0000   1.0000   1.0000   1.0000   1.0000   1.0000   1.0000   1.0000
     1.0000   1.0000   1.0000   1.0000   1.0000   1.0000   1.0000   1.0000
     1.0000   1.0000   1.0000   1.0000   1.0000   1.0000   1.0000   1.0000
     1.0000   1.0000   1.0000   1.0000   1.0000   1.0000   1.0000   1.0000
     1.0000   1.0000   1.0000   1.0000   1.0000   1.0000   1.0000   1.0000
     1.0000   1.0000   0.9987   0.0062   0.0006   0.0000   0.0000   0.0000
     0.0000   0.0000   0.0000   0.0000   0.0000   0.0000   0.0000   0.0000
     0.0000   0.0000   0.0000   0.0000   0.0000   0.0000   0.0000   0.0000
     0.0000   0.0000   0.0000   0.0000   0.0000   0.0000   0.0000   0.0000
     0.0000   0.0000   0.0000   0.0000   0.0000   0.0000   0.0000   0.0000
     0.0000   0.0000   0.0000   0.0000   0.0000   0.0000   0.0000   0.0000
     0.0000   0.0000   0.0000   0.0000   0.0000   0.0000   0.0000   0.0000

 ------ SPIN DOWN ----------


          k = 0.0000 0.0000 0.0000 ( 27835 PWs)   bands (ev):

   -79.2213 -79.0180 -78.9346 -74.2750 -74.2182 -74.1476 -45.2374 -45.1841
   -45.1841 -45.0071 -45.0071 -45.0035 -44.9896 -44.8828 -44.8827 -40.4232
   -40.3740 -40.3740 -40.3571 -40.3217 -40.3216 -40.3071 -40.2480 -40.2480
   -11.2523 -11.2523 -11.2175 -11.2175 -11.1945 -11.1945 -11.1676 -11.1517
   -11.1437 -11.1437 -11.1399 -11.1399 -11.1283 -11.1283 -11.1054 -11.0919
   -11.0839 -11.0839 -11.0763 -11.0763 -11.0720 -11.0720 -11.0635 -11.0586
   -11.0586 -11.0487 -11.0350 -11.0350 -11.0199 -11.0199  -7.8871  -7.5058
    -7.4151  -6.6435  -6.5898  -6.1829  -6.1828  -6.0649  -6.0556  -6.0555
    -5.9627  -5.9626  -5.8632  -5.8631  -5.7143  -5.7142  -5.5443  -5.5442
     0.8313   1.0739   1.1521   1.9295   2.0651   2.8208   4.9556   4.9556
     5.0472   5.4586   5.4587   5.5335   5.5695   5.5695   5.7200   5.7722
     5.7722   5.9603   6.0365   6.0365   6.2309   6.2310   6.2710   6.4276
     6.4276   6.4295   6.5229   6.7454   6.7455   7.0586   7.0587   7.1860
     7.3441   7.6323   7.6324   7.7596   7.8783   7.8783   7.9950   7.9951
     8.1809   8.3406   8.3563   8.3564   8.5312   8.5352   8.5352   8.6617
     8.6862   8.6863   8.8277   8.8278   8.9787   8.9788   9.3285   9.3286
     9.3542   9.3701   9.3701   9.4389   9.4390   9.7831   9.7832  10.1138
    10.2559  10.2560  10.2680  10.4457  10.5429  10.6762  10.7416  10.9715
    10.9715  11.6252  11.6253  12.1367  12.1368  12.3454  12.3517  12.3517
    12.4020  12.4609  12.4976  12.4976  13.3233  13.3234  13.9594  13.9594
    14.5038  14.5039  15.0717  15.1939  15.2954  15.3462  16.3903  16.3903
    16.5195  16.5195  16.5585  16.5585  16.8600  16.9014  17.1069  17.1069
    17.1868  17.1868  17.5975  17.5975  18.2930  19.5795  19.7964  19.9725
    20.6924  20.6924  20.9558  21.0390  21.6875  21.6875  21.7978  21.7978
    22.1218  22.1219  22.8307  22.9861  23.0335  23.0340  23.1864  23.1856

     occupation numbers 
     1.0000   1.0000   1.0000   1.0000   1.0000   1.0000   1.0000   1.0000
     1.0000   1.0000   1.0000   1.0000   1.0000   1.0000   1.0000   1.0000
     1.0000   1.0000   1.0000   1.0000   1.0000   1.0000   1.0000   1.0000
     1.0000   1.0000   1.0000   1.0000   1.0000   1.0000   1.0000   1.0000
     1.0000   1.0000   1.0000   1.0000   1.0000   1.0000   1.0000   1.0000
     1.0000   1.0000   1.0000   1.0000   1.0000   1.0000   1.0000   1.0000
     1.0000   1.0000   1.0000   1.0000   1.0000   1.0000   1.0000   1.0000
     1.0000   1.0000   1.0000   1.0000   1.0000   1.0000   1.0000   1.0000
     1.0000   1.0000   1.0000   1.0000   1.0000   1.0000   1.0000   1.0000
     1.0000   1.0000   1.0000   1.0000   1.0000   1.0000   1.0000   1.0000
     1.0000   1.0000   1.0000   1.0000   1.0000   1.0000   1.0000   1.0000
     1.0000   1.0000   1.0000   1.0000   1.0000   1.0000   1.0000   1.0000
     1.0000   1.0000   1.0000   1.0000   1.0000   1.0000   1.0000   1.0000
     1.0000   1.0000   1.0000   1.0000   1.0000   1.0000   1.0000   1.0000
     1.0000   1.0000   1.0000   1.0000   1.0000   1.0000   1.0000   1.0000
     1.0000   1.0000   1.0000   1.0000   1.0000   1.0000   1.0000   1.0000
     1.0000   1.0000   1.0000   1.0000   1.0000   1.0000   1.0000   1.0000
     1.0000   1.0000   1.0000   1.0000   1.0000   1.0000   1.0000   1.0000
     1.0000   0.9907   0.9907   0.0015   0.0015   0.0000   0.0000   0.0000
     0.0000   0.0000   0.0000   0.0000   0.0000   0.0000   0.0000   0.0000
     0.0000   0.0000   0.0000   0.0000   0.0000   0.0000   0.0000   0.0000
     0.0000   0.0000   0.0000   0.0000   0.0000   0.0000   0.0000   0.0000
     0.0000   0.0000   0.0000   0.0000   0.0000   0.0000   0.0000   0.0000
     0.0000   0.0000   0.0000   0.0000   0.0000   0.0000   0.0000   0.0000
     0.0000   0.0000   0.0000   0.0000   0.0000   0.0000   0.0000   0.0000

          k = 0.0000-0.5774 0.0000 ( 27780 PWs)   bands (ev):

   -79.2213 -79.0180 -78.9346 -74.2750 -74.2182 -74.1476 -45.2374 -45.1841
   -45.1841 -45.0071 -45.0071 -45.0035 -44.9896 -44.8828 -44.8827 -40.4232
   -40.3740 -40.3740 -40.3571 -40.3217 -40.3216 -40.3071 -40.2480 -40.2480
   -11.2479 -11.2179 -11.2035 -11.1947 -11.1888 -11.1821 -11.1719 -11.1594
   -11.1440 -11.1398 -11.1325 -11.1290 -11.1197 -11.1176 -11.1120 -11.1018
   -11.0922 -11.0898 -11.0829 -11.0783 -11.0765 -11.0749 -11.0716 -11.0621
   -11.0606 -11.0502 -11.0471 -11.0385 -11.0357 -11.0231  -7.2314  -7.1899
    -7.0211  -6.8542  -6.8147  -6.4404  -6.4178  -6.3142  -6.1761  -6.0958
    -6.0626  -6.0353  -5.9681  -5.8956  -5.7889  -5.7447  -5.6533  -5.5645
     1.0167   1.2407   1.2622   1.5584   1.6214   1.8354   5.0590   5.3404
     5.3873   5.5064   5.6905   5.7034   5.8092   5.8423   5.8699   6.0347
     6.0671   6.1219   6.2300   6.2980   6.4989   6.5866   6.6558   6.7437
     6.7780   6.8316   7.0009   7.0659   7.1718   7.2309   7.2752   7.4050
     7.4754   7.5294   7.6504   7.7355   7.7866   7.8159   7.9116   7.9524
     8.0778   8.1650   8.2078   8.2899   8.3547   8.3859   8.4900   8.5247
     8.5767   8.6472   8.7213   8.7839   8.9533   9.0850   9.1028   9.1445
     9.2009   9.2416   9.2764   9.3887   9.4299   9.5118   9.5695   9.8782
    10.0691  10.1969  10.3792  10.4096  10.4624  10.6254  10.9013  10.9457
    11.0530  11.0891  11.5595  12.0950  12.1651  12.2825  12.3391  12.3804
    12.4447  12.4966  12.6765  12.7589  13.3664  13.4468  13.6262  13.8035
    13.8865  14.3905  14.5978  15.1362  15.1797  15.3703  15.4498  15.4812
    15.5280  15.5700  15.6498  16.6458  16.6927  16.7734  16.8422  16.9325
    16.9941  17.0631  17.1247  17.2027  20.0242  20.1967  20.4718  20.9848
    21.1203  21.2077  21.6947  21.8418  21.9752  22.2849  22.3235  22.3439
    22.4647  22.5097  22.8300  22.8889  23.1111  23.1770  23.2348  23.2911

     occupation numbers 
     1.0000   1.0000   1.0000   1.0000   1.0000   1.0000   1.0000   1.0000
     1.0000   1.0000   1.0000   1.0000   1.0000   1.0000   1.0000   1.0000
     1.0000   1.0000   1.0000   1.0000   1.0000   1.0000   1.0000   1.0000
     1.0000   1.0000   1.0000   1.0000   1.0000   1.0000   1.0000   1.0000
     1.0000   1.0000   1.0000   1.0000   1.0000   1.0000   1.0000   1.0000
     1.0000   1.0000   1.0000   1.0000   1.0000   1.0000   1.0000   1.0000
     1.0000   1.0000   1.0000   1.0000   1.0000   1.0000   1.0000   1.0000
     1.0000   1.0000   1.0000   1.0000   1.0000   1.0000   1.0000   1.0000
     1.0000   1.0000   1.0000   1.0000   1.0000   1.0000   1.0000   1.0000
     1.0000   1.0000   1.0000   1.0000   1.0000   1.0000   1.0000   1.0000
     1.0000   1.0000   1.0000   1.0000   1.0000   1.0000   1.0000   1.0000
     1.0000   1.0000   1.0000   1.0000   1.0000   1.0000   1.0000   1.0000
     1.0000   1.0000   1.0000   1.0000   1.0000   1.0000   1.0000   1.0000
     1.0000   1.0000   1.0000   1.0000   1.0000   1.0000   1.0000   1.0000
     1.0000   1.0000   1.0000   1.0000   1.0000   1.0000   1.0000   1.0000
     1.0000   1.0000   1.0000   1.0000   1.0000   1.0000   1.0000   1.0000
     1.0000   1.0000   1.0000   1.0000   1.0000   1.0000   1.0000   1.0000
     1.0000   1.0000   1.0000   1.0000   1.0000   1.0000   1.0000   1.0000
     1.0000   1.0000   0.9988   0.0057   0.0006   0.0000   0.0000   0.0000
     0.0000   0.0000   0.0000   0.0000   0.0000   0.0000   0.0000   0.0000
     0.0000   0.0000   0.0000   0.0000   0.0000   0.0000   0.0000   0.0000
     0.0000   0.0000   0.0000   0.0000   0.0000   0.0000   0.0000   0.0000
     0.0000   0.0000   0.0000   0.0000   0.0000   0.0000   0.0000   0.0000
     0.0000   0.0000   0.0000   0.0000   0.0000   0.0000   0.0000   0.0000
     0.0000   0.0000   0.0000   0.0000   0.0000   0.0000   0.0000   0.0000

     the Fermi energy is    11.8518 ev

!    total energy              =   -3195.12353080 Ry
     estimated scf accuracy    <       0.00030842 Ry
     smearing contrib. (-TS)   =      -0.00046291 Ry
     internal energy E=F+TS    =   -3195.12306789 Ry

     The total energy is F=E-TS. E is the sum of the following terms:
     one-electron contribution =   -1315.60089168 Ry
     hartree contribution      =     843.34655613 Ry
     xc contribution           =    -695.21960317 Ry
     ewald contribution        =   -2027.64912917 Ry

     total magnetization       =     0.00 Bohr mag/cell
     absolute magnetization    =    27.56 Bohr mag/cell

     convergence has been achieved in  13 iterations

     Writing output data file /home/aldair1809/Documentos/QE/4BFO/UHUBBARD/temp/ecut_ecutwfc_75.in/bifeo3-scf.save/

     init_run     :     52.13s CPU     53.32s WALL (       1 calls)
     electrons    :   2572.02s CPU   2606.39s WALL (       1 calls)

     Called by init_run:
     wfcinit      :     45.98s CPU     46.47s WALL (       1 calls)
     wfcinit:atom :      0.06s CPU      0.10s WALL (       4 calls)
     wfcinit:wfcr :     45.41s CPU     45.77s WALL (       4 calls)
     potinit      :      1.41s CPU      1.47s WALL (       1 calls)
     hinit0       :      2.52s CPU      2.55s WALL (       1 calls)

     Called by electrons:
     c_bands      :   2308.76s CPU   2325.27s WALL (      13 calls)
     sum_band     :    229.00s CPU    239.22s WALL (      13 calls)
     v_of_rho     :      4.84s CPU      5.03s WALL (      14 calls)
     v_h          :      0.20s CPU      0.20s WALL (      14 calls)
     v_xc         :      4.64s CPU      4.83s WALL (      14 calls)
     newd         :     30.52s CPU     38.52s WALL (      14 calls)
     mix_rho      :      1.19s CPU      1.21s WALL (      13 calls)

     Called by c_bands:
     init_us_2    :      3.31s CPU      3.35s WALL (     108 calls)
     ccgdiagg     :   1757.35s CPU   1769.84s WALL (      52 calls)
     wfcrot       :    593.86s CPU    598.23s WALL (      52 calls)

     Called by sum_band:
     sum_band:wei :      0.01s CPU      0.01s WALL (      13 calls)
     sum_band:loo :    173.13s CPU    174.59s WALL (      13 calls)
     sum_band:buf :      0.66s CPU      0.67s WALL (      52 calls)
     sum_band:ini :      1.58s CPU      1.58s WALL (      52 calls)
     sum_band:cal :    108.97s CPU    109.03s WALL (      52 calls)
     sum_band:bec :      0.26s CPU      0.26s WALL (      52 calls)
     addusdens    :     54.34s CPU     63.03s WALL (      13 calls)
     addusd:skk   :      0.14s CPU      0.15s WALL (      52 calls)
     addusd:dgemm :     30.50s CPU     37.78s WALL (     104 calls)
     addusd:qvan2 :     23.33s CPU     23.35s WALL (     104 calls)

     Called by *cgdiagg:
     h_psi        :   1123.41s CPU   1137.43s WALL (   23899 calls)
     s_psi        :    631.03s CPU    632.03s WALL (   47746 calls)

     Called by h_psi:
     h_psi:calbec :    371.46s CPU    373.33s WALL (   23899 calls)
     vloc_psi     :    376.65s CPU    388.37s WALL (   23899 calls)
     add_vuspsi   :    373.68s CPU    374.18s WALL (   23899 calls)
     hs_1psi      :   1039.99s CPU   1050.30s WALL (   23847 calls)
     s_1psi       :    520.58s CPU    521.99s WALL (   23847 calls)

     General routines
     calbec       :    742.63s CPU    745.70s WALL (   47798 calls)
     fft          :      2.90s CPU      3.09s WALL (     292 calls)
     ffts         :      0.28s CPU      0.30s WALL (      26 calls)
     fftw         :    368.18s CPU    380.14s WALL (   78926 calls)

     Parallel routines
     fft_scatt_xy :     95.97s CPU     96.59s WALL (   79244 calls)
     fft_scatt_yz :     42.91s CPU     49.87s WALL (   79244 calls)

     PWSCF        :  43m44.82s CPU  44m21.14s WALL


   This run was terminated on:  17: 9:35  29Sep2024            

=------------------------------------------------------------------------------=
   JOB DONE.
=------------------------------------------------------------------------------=
