
     Program PWSCF v.6.7MaX starts on 29Sep2024 at 14:33:48 

     This program is part of the open-source Quantum ESPRESSO suite
     for quantum simulation of materials; please cite
         "P. Giannozzi et al., J. Phys.:Condens. Matter 21 395502 (2009);
         "P. Giannozzi et al., J. Phys.:Condens. Matter 29 465901 (2017);
          URL http://www.quantum-espresso.org", 
     in publications or presentations arising from this work. More details at
     http://www.quantum-espresso.org/quote

     Parallel version (MPI), running on     4 processors

     MPI processes distributed on     1 nodes
     R & G space division:  proc/nbgrp/npool/nimage =       4
     Waiting for input...
     Reading input from standard input

     Current dimensions of program PWSCF are:
     Max number of different atomic species (ntypx) = 10
     Max number of k-points (npk) =  40000
     Max angular momentum in pseudopotentials (lmaxx) =  3
     Message from routine iosys:
     wrong startingpot: use default (1)

     Subspace diagonalization in iterative solution of the eigenvalue problem:
     one sub-group per band group will be used
     scalapack distributed-memory algorithm (size of sub-group:  2*  2 procs)

     Message from routine setup:
     using ibrav=0 with symmetry is DISCOURAGED, use correct ibrav instead

     Parallelization info
     --------------------
     sticks:   dense  smooth     PW     G-vecs:    dense   smooth      PW
     Min         455     455    124                39747    39747    5668
     Max         459     459    125                39749    39749    5681
     Sum        1831    1831    499               158991   158991   22705



     bravais-lattice index     =            0
     lattice parameter (alat)  =      10.5468  a.u.
     unit-cell volume          =    2535.5110 (a.u.)^3
     number of atoms/cell      =           30
     number of atomic types    =            4
     number of electrons       =       294.00
     number of Kohn-Sham states=          200
     kinetic-energy cutoff     =      60.0000  Ry
     charge density cutoff     =     240.0000  Ry
     scf convergence threshold =      1.0E-03
     mixing beta               =       0.2000
     number of iterations used =            8  plain     mixing
     Exchange-correlation=  SLA  PW   PBX  PBC
                           (   1   4   3   4   0   0   0)

     celldm(1)=  10.546849  celldm(2)=   0.000000  celldm(3)=   0.000000
     celldm(4)=   0.000000  celldm(5)=   0.000000  celldm(6)=   0.000000

     crystal axes: (cart. coord. in units of alat)
               a(1) = (   1.000000  -0.000000  -0.000000 )  
               a(2) = (  -0.500000   0.866025  -0.000000 )  
               a(3) = (   0.000000  -0.000000   2.495552 )  

     reciprocal axes: (cart. coord. in units 2 pi/alat)
               b(1) = (  1.000000  0.577350  0.000000 )  
               b(2) = (  0.000000  1.154701  0.000000 )  
               b(3) = (  0.000000  0.000000  0.400713 )  


     PseudoPot. # 1 for O  read from file:
     /home/aldair1809/Programas/QE/q-e-qe-7.3/pseudo/o_pbe_v1.2.uspp.F.UPF
     MD5 check sum: 734c27235a0248c51dbae37a1fbe46ec
     Pseudo is Ultrasoft + core correction, Zval =  6.0
     Generated by new atomic code, or converted to UPF format
     Using radial grid of  737 points,  5 beta functions with: 
                l(1) =   0
                l(2) =   0
                l(3) =   1
                l(4) =   1
                l(5) =   2
     Q(r) pseudized with  8 coefficients,  rinner =    0.900   0.900   0.900
                                                       0.900   0.900

     PseudoPot. # 2 for Bi read from file:
     /home/aldair1809/Programas/QE/q-e-qe-7.3/pseudo/bi_pbe_v1.uspp.F.UPF
     MD5 check sum: cceb9f28ec65b6d7ff33140f5b0b1758
     Pseudo is Ultrasoft + core correction, Zval = 15.0
     Generated by new atomic code, or converted to UPF format
     Using radial grid of  899 points,  6 beta functions with: 
                l(1) =   0
                l(2) =   0
                l(3) =   1
                l(4) =   1
                l(5) =   2
                l(6) =   2
     Q(r) pseudized with  6 coefficients,  rinner =    1.000   1.000   1.000
                                                       1.000   1.000

     PseudoPot. # 3 for Fe read from file:
     /home/aldair1809/Programas/QE/q-e-qe-7.3/pseudo/fe_pbe_v1.5.uspp.F.UPF
     MD5 check sum: a130daea23fe5165f5d574ae7f82ed95
     Pseudo is Ultrasoft + core correction, Zval = 16.0
     Generated by new atomic code, or converted to UPF format
     Using radial grid of  861 points,  6 beta functions with: 
                l(1) =   0
                l(2) =   0
                l(3) =   1
                l(4) =   1
                l(5) =   2
                l(6) =   2
     Q(r) pseudized with  8 coefficients,  rinner =    1.000   1.000   1.000
                                                       1.000   1.000

     PseudoPot. # 4 for Fe read from file:
     /home/aldair1809/Programas/QE/q-e-qe-7.3/pseudo/fe_pbe_v1.5.uspp.F.UPF
     MD5 check sum: a130daea23fe5165f5d574ae7f82ed95
     Pseudo is Ultrasoft + core correction, Zval = 16.0
     Generated by new atomic code, or converted to UPF format
     Using radial grid of  861 points,  6 beta functions with: 
                l(1) =   0
                l(2) =   0
                l(3) =   1
                l(4) =   1
                l(5) =   2
                l(6) =   2
     Q(r) pseudized with  8 coefficients,  rinner =    1.000   1.000   1.000
                                                       1.000   1.000

     atomic species   valence    mass     pseudopotential
        O              6.00    15.99940     O ( 1.00)
        Bi            15.00   208.98040     Bi( 1.00)
        Fe1           16.00    55.84500     Fe( 1.00)
        Fe2           16.00    55.84500     Fe( 1.00)

     Starting magnetic structure 
     atomic species   magnetization
        O            0.000
        Bi           0.000
        Fe1         -0.800
        Fe2          0.800

      3 Sym. Ops. (no inversion) found


                                    s                        frac. trans.

      isym =  1     identity                                     

 cryst.   s( 1) = (     1          0          0      )
                  (     0          1          0      )
                  (     0          0          1      )

 cart.    s( 1) = (  1.0000000 -0.0000000  0.0000000 )
                  (  0.0000000  1.0000000  0.0000000 )
                  (  0.0000000  0.0000000  1.0000000 )


      isym =  2     120 deg rotation - cryst. axis [0,0,1]       

 cryst.   s( 2) = (     0          1          0      )
                  (    -1         -1          0      )
                  (     0          0          1      )

 cart.    s( 2) = ( -0.5000000 -0.8660254  0.0000000 )
                  (  0.8660254 -0.5000000  0.0000000 )
                  (  0.0000000  0.0000000  1.0000000 )


      isym =  3     120 deg rotation - cryst. axis [0,0,-1]      

 cryst.   s( 3) = (    -1         -1          0      )
                  (     1          0          0      )
                  (     0          0          1      )

 cart.    s( 3) = ( -0.5000000  0.8660254  0.0000000 )
                  ( -0.8660254 -0.5000000  0.0000000 )
                  (  0.0000000  0.0000000  1.0000000 )


   Cartesian axes

     site n.     atom                  positions (alat units)
         1           Fe1 tau(   1) = (   0.0000000   0.0000000   1.9384582  )
         2           Fe1 tau(   2) = (  -0.0000005   0.5773506   2.3615556  )
         3           Fe1 tau(   3) = (   0.5000005   0.2886748   1.5200787  )
         4           Fe2 tau(   4) = (   0.5000005   0.2886748   0.2722626  )
         5           Fe2 tau(   5) = (   0.0000000   0.0000000   0.6907071  )
         6           Fe2 tau(   6) = (  -0.0000005   0.5773506   1.1137452  )
         7           Bi  tau(   7) = (   0.5000005   0.2886748   2.0843143  )
         8           Bi  tau(   8) = (  -0.0000005   0.5773506   1.6713980  )
         9           Bi  tau(   9) = (  -0.0000005   0.5773506   0.4235448  )
        10           Bi  tau(  10) = (   0.0000000   0.0000000   0.0002821  )
        11           Bi  tau(  11) = (   0.0000000   0.0000000   1.2481025  )
        12           Bi  tau(  12) = (   0.5000005   0.2886748   0.8364865  )
        13           O   tau(  13) = (  -0.3105904   0.6551932   2.2011299  )
        14           O   tau(  14) = (   0.0878817   0.2694488   2.2011299  )
        15           O   tau(  15) = (   0.2227102   0.8074080   2.2011299  )
        16           O   tau(  16) = (   0.4087504   0.5589755   1.7846473  )
        17           O   tau(  17) = (   0.3115373   0.0745013   1.7846473  )
        18           O   tau(  18) = (   0.7797108   0.2325494   1.7846473  )
        19           O   tau(  19) = (   0.6884743   0.0745026   0.5368244  )
        20           O   tau(  20) = (   0.5912412   0.5589858   0.5368244  )
        21           O   tau(  21) = (   0.2202830   0.2325379   0.5368244  )
        22           O   tau(  22) = (  -0.0823010   0.8482993   0.1166193  )
        23           O   tau(  23) = (  -0.1934983   0.3706010   0.1166193  )
        24           O   tau(  24) = (   0.2757993   0.5131505   0.1166193  )
        25           O   tau(  25) = (   0.1934855   0.3705936   1.3644430  )
        26           O   tau(  26) = (   0.0823138   0.8482919   1.3644430  )
        27           O   tau(  27) = (  -0.2757993   0.5131653   1.3644430  )
        28           O   tau(  28) = (  -0.0878870   0.2694458   0.9533686  )
        29           O   tau(  29) = (   0.3105971   0.6551893   0.9533686  )
        30           O   tau(  30) = (  -0.2227086   0.8074149   0.9533686  )

   Crystallographic axes

     site n.     atom                  positions (cryst. coord.)
         1           Fe1 tau(   1) = (  0.0000000  0.0000000  0.7767652  )
         2           Fe1 tau(   2) = (  0.3333330  0.6666670  0.9463058  )
         3           Fe1 tau(   3) = (  0.6666670  0.3333330  0.6091152  )
         4           Fe2 tau(   4) = (  0.6666670  0.3333330  0.1090991  )
         5           Fe2 tau(   5) = (  0.0000000  0.0000000  0.2767753  )
         6           Fe2 tau(   6) = (  0.3333330  0.6666670  0.4462921  )
         7           Bi  tau(   7) = (  0.6666670  0.3333330  0.8352117  )
         8           Bi  tau(   8) = (  0.3333330  0.6666670  0.6697508  )
         9           Bi  tau(   9) = (  0.3333330  0.6666670  0.1697199  )
        10           Bi  tau(  10) = (  0.0000000  0.0000000  0.0001130  )
        11           Bi  tau(  11) = (  0.0000000  0.0000000  0.5001308  )
        12           Bi  tau(  12) = (  0.6666670  0.3333330  0.3351910  )
        13           O   tau(  13) = (  0.0676856  0.7565520  0.8820212  )
        14           O   tau(  14) = (  0.2434480  0.3111326  0.8820212  )
        15           O   tau(  15) = (  0.6888674  0.9323144  0.8820212  )
        16           O   tau(  16) = (  0.7314750  0.6454493  0.7151312  )
        17           O   tau(  17) = (  0.3545507  0.0860267  0.7151312  )
        18           O   tau(  18) = (  0.9139733  0.2685250  0.7151312  )
        19           O   tau(  19) = (  0.7314884  0.0860282  0.2151125  )
        20           O   tau(  20) = (  0.9139718  0.6454612  0.2151125  )
        21           O   tau(  21) = (  0.3545388  0.2685116  0.2151125  )
        22           O   tau(  22) = (  0.4074649  0.9795317  0.0467309  )
        23           O   tau(  23) = (  0.0204683  0.4279331  0.0467309  )
        24           O   tau(  24) = (  0.5720669  0.5925351  0.0467309  )
        25           O   tau(  25) = (  0.4074478  0.4279246  0.5467499  )
        26           O   tau(  26) = (  0.5720754  0.9795232  0.5467499  )
        27           O   tau(  27) = (  0.0204768  0.5925522  0.5467499  )
        28           O   tau(  28) = (  0.0676775  0.3111292  0.3820271  )
        29           O   tau(  29) = (  0.6888708  0.7565474  0.3820271  )
        30           O   tau(  30) = (  0.2434526  0.9323225  0.3820271  )

     number of k points=     2  Gaussian smearing, width (Ry)=  0.0100
                       cart. coord. in units 2pi/alat
        k(    1) = (   0.0000000   0.0000000   0.0000000), wk =   0.2500000
        k(    2) = (   0.0000000  -0.5773503   0.0000000), wk =   0.7500000

                       cryst. coord.
        k(    1) = (   0.0000000   0.0000000   0.0000000), wk =   0.2500000
        k(    2) = (   0.0000000  -0.5000000   0.0000000), wk =   0.7500000

     Dense  grid:   158991 G-vectors     FFT dimensions: (  54,  54, 135)

     Dynamical RAM for                 wfc:      15.18 MB

     Dynamical RAM for     wfc (w. buffer):      75.90 MB

     Dynamical RAM for           str. fact:       2.43 MB

     Dynamical RAM for           local pot:       0.00 MB

     Dynamical RAM for          nlocal pot:      34.15 MB

     Dynamical RAM for                qrad:       4.98 MB

     Dynamical RAM for          rho,v,vnew:       8.18 MB

     Dynamical RAM for               rhoin:       2.73 MB

     Dynamical RAM for            rho*nmix:      19.41 MB

     Dynamical RAM for           G-vectors:       2.58 MB

     Dynamical RAM for          h,s,v(r/c):       0.46 MB

     Dynamical RAM for          <psi|beta>:       1.37 MB

     Dynamical RAM for      wfcinit/wfcrot:      31.92 MB

     Dynamical RAM for           addusdens:     124.34 MB

     Estimated static dynamical RAM per process >     157.91 MB

     Estimated max dynamical RAM per process >     282.25 MB

     Estimated total dynamical RAM >       1.10 GB

     Check: negative core charge=   -0.000014
     Generating pointlists ...
     new r_m :   0.1458 (alat units)  1.5374 (a.u.) for type    1
     new r_m :   0.1687 (alat units)  1.7788 (a.u.) for type    2
     new r_m :   0.1458 (alat units)  1.5374 (a.u.) for type    3
     new r_m :   0.1458 (alat units)  1.5374 (a.u.) for type    4

     Initial potential from superposition of free atoms

     starting charge  281.99969, renormalised to  294.00000

     negative rho (up, down):  1.305E-01 1.305E-01
     Starting wfcs are  204 randomized atomic wfcs

     total cpu time spent up to now is       37.5 secs

     Self-consistent Calculation

     iteration #  1     ecut=    60.00 Ry     beta= 0.20
     CG style diagonalization
     ethr =  1.00E-02,  avg # of iterations =  2.6

     negative rho (up, down):  1.264E-01 1.264E-01

     total cpu time spent up to now is      162.8 secs

     total energy              =   -3189.35771778 Ry
     estimated scf accuracy    <      22.84538725 Ry

     total magnetization       =    -0.00 Bohr mag/cell
     absolute magnetization    =    30.54 Bohr mag/cell

     iteration #  2     ecut=    60.00 Ry     beta= 0.20
     CG style diagonalization
     ethr =  7.77E-03,  avg # of iterations =  3.0

     negative rho (up, down):  1.222E-01 1.222E-01

     total cpu time spent up to now is      313.5 secs

     total energy              =   -3192.24999824 Ry
     estimated scf accuracy    <       9.33118464 Ry

     total magnetization       =    -0.00 Bohr mag/cell
     absolute magnetization    =    29.72 Bohr mag/cell

     iteration #  3     ecut=    60.00 Ry     beta= 0.20
     CG style diagonalization
     ethr =  3.17E-03,  avg # of iterations =  3.1

     negative rho (up, down):  1.231E-01 1.231E-01

     total cpu time spent up to now is      461.3 secs

     total energy              =   -3193.79680707 Ry
     estimated scf accuracy    <       4.37267258 Ry

     total magnetization       =    -0.00 Bohr mag/cell
     absolute magnetization    =    28.27 Bohr mag/cell

     iteration #  4     ecut=    60.00 Ry     beta= 0.20
     CG style diagonalization
     ethr =  1.49E-03,  avg # of iterations =  3.3

     negative rho (up, down):  1.211E-01 1.211E-01

     total cpu time spent up to now is      624.3 secs

     total energy              =   -3194.81514621 Ry
     estimated scf accuracy    <       2.37943883 Ry

     total magnetization       =     0.00 Bohr mag/cell
     absolute magnetization    =    29.09 Bohr mag/cell

     iteration #  5     ecut=    60.00 Ry     beta= 0.20
     CG style diagonalization
     ethr =  8.09E-04,  avg # of iterations =  3.1

     negative rho (up, down):  1.212E-01 1.211E-01

     total cpu time spent up to now is      768.0 secs

     total energy              =   -3195.13184273 Ry
     estimated scf accuracy    <       0.16321352 Ry

     total magnetization       =     0.00 Bohr mag/cell
     absolute magnetization    =    27.60 Bohr mag/cell

     iteration #  6     ecut=    60.00 Ry     beta= 0.20
     CG style diagonalization
     c_bands:  3 eigenvalues not converged
     c_bands:  1 eigenvalues not converged
     ethr =  5.55E-05,  avg # of iterations =  3.9

     negative rho (up, down):  1.216E-01 1.215E-01

     total cpu time spent up to now is      961.1 secs

     total energy              =   -3195.05048094 Ry
     estimated scf accuracy    <       1.13590471 Ry

     total magnetization       =    -0.01 Bohr mag/cell
     absolute magnetization    =    26.05 Bohr mag/cell

     iteration #  7     ecut=    60.00 Ry     beta= 0.20
     CG style diagonalization
     ethr =  5.55E-05,  avg # of iterations =  3.4

     negative rho (up, down):  1.223E-01 1.222E-01

     total cpu time spent up to now is     1116.4 secs

     total energy              =   -3195.10684247 Ry
     estimated scf accuracy    <       0.10070281 Ry

     total magnetization       =     0.00 Bohr mag/cell
     absolute magnetization    =    27.24 Bohr mag/cell

     iteration #  8     ecut=    60.00 Ry     beta= 0.20
     CG style diagonalization
     c_bands:  1 eigenvalues not converged
     ethr =  3.43E-05,  avg # of iterations =  3.4

     negative rho (up, down):  1.224E-01 1.223E-01

     total cpu time spent up to now is     1279.9 secs

     total energy              =   -3195.11988209 Ry
     estimated scf accuracy    <       0.15056494 Ry

     total magnetization       =    -0.00 Bohr mag/cell
     absolute magnetization    =    27.72 Bohr mag/cell

     iteration #  9     ecut=    60.00 Ry     beta= 0.20
     CG style diagonalization
     ethr =  3.43E-05,  avg # of iterations =  3.0

     negative rho (up, down):  1.224E-01 1.224E-01

     total cpu time spent up to now is     1411.2 secs

     total energy              =   -3195.11658647 Ry
     estimated scf accuracy    <       0.05227198 Ry

     total magnetization       =     0.00 Bohr mag/cell
     absolute magnetization    =    27.62 Bohr mag/cell

     iteration # 10     ecut=    60.00 Ry     beta= 0.20
     CG style diagonalization
     ethr =  1.78E-05,  avg # of iterations =  3.0

     negative rho (up, down):  1.226E-01 1.225E-01

     total cpu time spent up to now is     1548.9 secs

     total energy              =   -3195.11476277 Ry
     estimated scf accuracy    <       0.01376356 Ry

     total magnetization       =    -0.00 Bohr mag/cell
     absolute magnetization    =    27.53 Bohr mag/cell

     iteration # 11     ecut=    60.00 Ry     beta= 0.20
     CG style diagonalization
     c_bands:  1 eigenvalues not converged
     c_bands:  2 eigenvalues not converged
     c_bands:  4 eigenvalues not converged
     ethr =  4.68E-06,  avg # of iterations =  3.4

     negative rho (up, down):  1.226E-01 1.225E-01

     total cpu time spent up to now is     1698.3 secs

     total energy              =   -3195.11661951 Ry
     estimated scf accuracy    <       0.00205845 Ry

     total magnetization       =     0.00 Bohr mag/cell
     absolute magnetization    =    27.54 Bohr mag/cell

     iteration # 12     ecut=    60.00 Ry     beta= 0.20
     CG style diagonalization
     c_bands:  2 eigenvalues not converged
     c_bands:  1 eigenvalues not converged
     c_bands:  1 eigenvalues not converged
     ethr =  7.00E-07,  avg # of iterations =  3.3

     negative rho (up, down):  1.225E-01 1.225E-01

     total cpu time spent up to now is     1844.8 secs

     total energy              =   -3195.11682859 Ry
     estimated scf accuracy    <       0.00144389 Ry

     total magnetization       =    -0.00 Bohr mag/cell
     absolute magnetization    =    27.53 Bohr mag/cell

     iteration # 13     ecut=    60.00 Ry     beta= 0.20
     CG style diagonalization
     ethr =  4.91E-07,  avg # of iterations =  3.1

     negative rho (up, down):  1.224E-01 1.224E-01

     Magnetic moment per site:
     atom:    1    charge:   12.9921    magn:   -3.7187    constr:    0.0000
     atom:    2    charge:   13.0019    magn:   -3.6019    constr:    0.0000
     atom:    3    charge:   13.0159    magn:   -3.5933    constr:    0.0000
     atom:    4    charge:   13.0170    magn:    3.5926    constr:    0.0000
     atom:    5    charge:   12.9923    magn:    3.7196    constr:    0.0000
     atom:    6    charge:   13.0015    magn:    3.6024    constr:    0.0000
     atom:    7    charge:   10.4959    magn:   -0.0157    constr:    0.0000
     atom:    8    charge:   10.4952    magn:   -0.0123    constr:    0.0000
     atom:    9    charge:   10.4962    magn:    0.0123    constr:    0.0000
     atom:   10    charge:   10.4954    magn:   -0.0041    constr:    0.0000
     atom:   11    charge:   10.4943    magn:    0.0041    constr:    0.0000
     atom:   12    charge:   10.4959    magn:    0.0156    constr:    0.0000
     atom:   13    charge:    5.3949    magn:   -0.2076    constr:    0.0000
     atom:   14    charge:    5.3949    magn:   -0.2076    constr:    0.0000
     atom:   15    charge:    5.3949    magn:   -0.2076    constr:    0.0000
     atom:   16    charge:    5.3935    magn:   -0.2194    constr:    0.0000
     atom:   17    charge:    5.3935    magn:   -0.2194    constr:    0.0000
     atom:   18    charge:    5.3935    magn:   -0.2194    constr:    0.0000
     atom:   19    charge:    5.3935    magn:    0.2192    constr:    0.0000
     atom:   20    charge:    5.3935    magn:    0.2192    constr:    0.0000
     atom:   21    charge:    5.3935    magn:    0.2192    constr:    0.0000
     atom:   22    charge:    5.3861    magn:    0.0657    constr:    0.0000
     atom:   23    charge:    5.3861    magn:    0.0657    constr:    0.0000
     atom:   24    charge:    5.3861    magn:    0.0657    constr:    0.0000
     atom:   25    charge:    5.3854    magn:   -0.0656    constr:    0.0000
     atom:   26    charge:    5.3854    magn:   -0.0656    constr:    0.0000
     atom:   27    charge:    5.3854    magn:   -0.0656    constr:    0.0000
     atom:   28    charge:    5.3959    magn:    0.2076    constr:    0.0000
     atom:   29    charge:    5.3959    magn:    0.2076    constr:    0.0000
     atom:   30    charge:    5.3959    magn:    0.2076    constr:    0.0000

     total cpu time spent up to now is     1985.5 secs

     End of self-consistent calculation

 ------ SPIN UP ------------


          k = 0.0000 0.0000 0.0000 ( 19871 PWs)   bands (ev):

   -79.2279 -79.0239 -78.9462 -74.2855 -74.2206 -74.1526 -45.2433 -45.1903
   -45.1903 -45.0141 -45.0124 -45.0124 -44.9953 -44.8939 -44.8939 -40.4334
   -40.3839 -40.3839 -40.3593 -40.3239 -40.3239 -40.3118 -40.2526 -40.2526
   -11.2490 -11.2490 -11.2135 -11.2134 -11.1910 -11.1910 -11.1647 -11.1470
   -11.1403 -11.1403 -11.1367 -11.1367 -11.1239 -11.1239 -11.1020 -11.0886
   -11.0805 -11.0805 -11.0730 -11.0730 -11.0684 -11.0684 -11.0604 -11.0548
   -11.0548 -11.0450 -11.0319 -11.0319 -11.0162 -11.0162  -7.8871  -7.5058
    -7.4151  -6.6437  -6.5897  -6.1833  -6.1832  -6.0650  -6.0556  -6.0555
    -5.9625  -5.9625  -5.8627  -5.8626  -5.7144  -5.7144  -5.5447  -5.5447
     0.8327   1.0754   1.1535   1.9308   2.0662   2.8223   4.9546   4.9546
     5.0462   5.4571   5.4571   5.5325   5.5679   5.5679   5.7188   5.7699
     5.7699   5.9594   6.0343   6.0343   6.2296   6.2297   6.2697   6.4253
     6.4253   6.4283   6.5217   6.7432   6.7432   7.0550   7.0550   7.1847
     7.3427   7.6296   7.6296   7.7564   7.8754   7.8754   7.9925   7.9925
     8.1780   8.3367   8.3547   8.3548   8.5303   8.5322   8.5322   8.6610
     8.6840   8.6841   8.8260   8.8261   8.9771   8.9771   9.3278   9.3279
     9.3535   9.3697   9.3697   9.4387   9.4388   9.7827   9.7827  10.1133
    10.2525  10.2525  10.2675  10.4453  10.5421  10.6765  10.7415  10.9672
    10.9673  11.6218  11.6219  12.1309  12.1309  12.3406  12.3482  12.3482
    12.3994  12.4568  12.4930  12.4930  13.3179  13.3179  13.9565  13.9565
    14.4992  14.4992  15.0713  15.1943  15.2954  15.3463  16.3905  16.3906
    16.5204  16.5204  16.5594  16.5594  16.8607  16.9019  17.1074  17.1075
    17.1872  17.1872  17.5982  17.5982  18.2910  19.5776  19.7946  19.9714
    20.6910  20.6910  20.9543  21.0378  21.6864  21.6865  21.7969  21.7970
    22.1209  22.1209  22.8291  22.9834  23.0328  23.0347  23.1844  23.3146

     occupation numbers 
     1.0000   1.0000   1.0000   1.0000   1.0000   1.0000   1.0000   1.0000
     1.0000   1.0000   1.0000   1.0000   1.0000   1.0000   1.0000   1.0000
     1.0000   1.0000   1.0000   1.0000   1.0000   1.0000   1.0000   1.0000
     1.0000   1.0000   1.0000   1.0000   1.0000   1.0000   1.0000   1.0000
     1.0000   1.0000   1.0000   1.0000   1.0000   1.0000   1.0000   1.0000
     1.0000   1.0000   1.0000   1.0000   1.0000   1.0000   1.0000   1.0000
     1.0000   1.0000   1.0000   1.0000   1.0000   1.0000   1.0000   1.0000
     1.0000   1.0000   1.0000   1.0000   1.0000   1.0000   1.0000   1.0000
     1.0000   1.0000   1.0000   1.0000   1.0000   1.0000   1.0000   1.0000
     1.0000   1.0000   1.0000   1.0000   1.0000   1.0000   1.0000   1.0000
     1.0000   1.0000   1.0000   1.0000   1.0000   1.0000   1.0000   1.0000
     1.0000   1.0000   1.0000   1.0000   1.0000   1.0000   1.0000   1.0000
     1.0000   1.0000   1.0000   1.0000   1.0000   1.0000   1.0000   1.0000
     1.0000   1.0000   1.0000   1.0000   1.0000   1.0000   1.0000   1.0000
     1.0000   1.0000   1.0000   1.0000   1.0000   1.0000   1.0000   1.0000
     1.0000   1.0000   1.0000   1.0000   1.0000   1.0000   1.0000   1.0000
     1.0000   1.0000   1.0000   1.0000   1.0000   1.0000   1.0000   1.0000
     1.0000   1.0000   1.0000   1.0000   1.0000   1.0000   1.0000   1.0000
     1.0000   0.9905   0.9904   0.0016   0.0016   0.0000   0.0000   0.0000
     0.0000   0.0000   0.0000   0.0000   0.0000   0.0000   0.0000   0.0000
     0.0000   0.0000   0.0000   0.0000   0.0000   0.0000   0.0000   0.0000
     0.0000   0.0000   0.0000   0.0000   0.0000   0.0000   0.0000   0.0000
     0.0000   0.0000   0.0000   0.0000   0.0000   0.0000   0.0000   0.0000
     0.0000   0.0000   0.0000   0.0000   0.0000   0.0000   0.0000   0.0000
     0.0000   0.0000   0.0000   0.0000   0.0000   0.0000   0.0000   0.0000

          k = 0.0000-0.5774 0.0000 ( 19916 PWs)   bands (ev):

   -79.2279 -79.0239 -78.9462 -74.2855 -74.2206 -74.1526 -45.2433 -45.1903
   -45.1903 -45.0141 -45.0124 -45.0124 -44.9953 -44.8939 -44.8939 -40.4334
   -40.3839 -40.3839 -40.3593 -40.3239 -40.3239 -40.3118 -40.2526 -40.2526
   -11.2446 -11.2138 -11.2006 -11.1911 -11.1844 -11.1787 -11.1681 -11.1558
   -11.1405 -11.1357 -11.1294 -11.1259 -11.1159 -11.1137 -11.1081 -11.0978
   -11.0888 -11.0864 -11.0794 -11.0748 -11.0729 -11.0715 -11.0684 -11.0591
   -11.0570 -11.0473 -11.0434 -11.0354 -11.0320 -11.0194  -7.2313  -7.1899
    -7.0209  -6.8541  -6.8149  -6.4404  -6.4181  -6.3143  -6.1761  -6.0959
    -6.0626  -6.0357  -5.9675  -5.8956  -5.7890  -5.7446  -5.6538  -5.5649
     1.0177   1.2422   1.2633   1.5597   1.6225   1.8367   5.0572   5.3388
     5.3841   5.5039   5.6893   5.7017   5.8077   5.8407   5.8688   6.0333
     6.0654   6.1196   6.2279   6.2970   6.4976   6.5842   6.6535   6.7412
     6.7762   6.8298   6.9989   7.0634   7.1691   7.2288   7.2730   7.4032
     7.4738   7.5259   7.6486   7.7339   7.7851   7.8142   7.9093   7.9510
     8.0754   8.1623   8.2068   8.2875   8.3531   8.3837   8.4888   8.5228
     8.5757   8.6453   8.7200   8.7825   8.9524   9.0843   9.1023   9.1440
     9.2002   9.2408   9.2757   9.3873   9.4290   9.5093   9.5680   9.8751
    10.0678  10.1960  10.3776  10.4074  10.4616  10.6233  10.8991  10.9428
    11.0508  11.0863  11.5563  12.0890  12.1600  12.2763  12.3352  12.3771
    12.4417  12.4932  12.6731  12.7549  13.3612  13.4438  13.6208  13.8006
    13.8836  14.3864  14.5965  15.1361  15.1795  15.3704  15.4498  15.4816
    15.5276  15.5704  15.6500  16.6460  16.6934  16.7741  16.8426  16.9331
    16.9943  17.0631  17.1256  17.2036  20.0214  20.1944  20.4697  20.9843
    21.1194  21.2068  21.6936  21.8404  21.9737  22.2840  22.3217  22.3428
    22.4640  22.5103  22.8289  22.8876  23.1092  23.1764  23.2343  23.2925

     occupation numbers 
     1.0000   1.0000   1.0000   1.0000   1.0000   1.0000   1.0000   1.0000
     1.0000   1.0000   1.0000   1.0000   1.0000   1.0000   1.0000   1.0000
     1.0000   1.0000   1.0000   1.0000   1.0000   1.0000   1.0000   1.0000
     1.0000   1.0000   1.0000   1.0000   1.0000   1.0000   1.0000   1.0000
     1.0000   1.0000   1.0000   1.0000   1.0000   1.0000   1.0000   1.0000
     1.0000   1.0000   1.0000   1.0000   1.0000   1.0000   1.0000   1.0000
     1.0000   1.0000   1.0000   1.0000   1.0000   1.0000   1.0000   1.0000
     1.0000   1.0000   1.0000   1.0000   1.0000   1.0000   1.0000   1.0000
     1.0000   1.0000   1.0000   1.0000   1.0000   1.0000   1.0000   1.0000
     1.0000   1.0000   1.0000   1.0000   1.0000   1.0000   1.0000   1.0000
     1.0000   1.0000   1.0000   1.0000   1.0000   1.0000   1.0000   1.0000
     1.0000   1.0000   1.0000   1.0000   1.0000   1.0000   1.0000   1.0000
     1.0000   1.0000   1.0000   1.0000   1.0000   1.0000   1.0000   1.0000
     1.0000   1.0000   1.0000   1.0000   1.0000   1.0000   1.0000   1.0000
     1.0000   1.0000   1.0000   1.0000   1.0000   1.0000   1.0000   1.0000
     1.0000   1.0000   1.0000   1.0000   1.0000   1.0000   1.0000   1.0000
     1.0000   1.0000   1.0000   1.0000   1.0000   1.0000   1.0000   1.0000
     1.0000   1.0000   1.0000   1.0000   1.0000   1.0000   1.0000   1.0000
     1.0000   1.0000   0.9988   0.0060   0.0006   0.0000   0.0000   0.0000
     0.0000   0.0000   0.0000   0.0000   0.0000   0.0000   0.0000   0.0000
     0.0000   0.0000   0.0000   0.0000   0.0000   0.0000   0.0000   0.0000
     0.0000   0.0000   0.0000   0.0000   0.0000   0.0000   0.0000   0.0000
     0.0000   0.0000   0.0000   0.0000   0.0000   0.0000   0.0000   0.0000
     0.0000   0.0000   0.0000   0.0000   0.0000   0.0000   0.0000   0.0000
     0.0000   0.0000   0.0000   0.0000   0.0000   0.0000   0.0000   0.0000

 ------ SPIN DOWN ----------


          k = 0.0000 0.0000 0.0000 ( 19871 PWs)   bands (ev):

   -79.2265 -79.0263 -78.9404 -74.2877 -74.2184 -74.1588 -45.2422 -45.1886
   -45.1886 -45.0146 -45.0146 -45.0086 -44.9976 -44.8879 -44.8879 -40.4355
   -40.3863 -40.3863 -40.3572 -40.3218 -40.3218 -40.3179 -40.2588 -40.2588
   -11.2475 -11.2475 -11.2143 -11.2143 -11.1912 -11.1912 -11.1599 -11.1516
   -11.1395 -11.1395 -11.1342 -11.1342 -11.1273 -11.1273 -11.1018 -11.0884
   -11.0801 -11.0801 -11.0715 -11.0715 -11.0683 -11.0683 -11.0583 -11.0566
   -11.0566 -11.0476 -11.0301 -11.0301 -11.0185 -11.0185  -7.8849  -7.5051
    -7.4167  -6.6422  -6.5905  -6.1783  -6.1782  -6.0671  -6.0539  -6.0539
    -5.9618  -5.9618  -5.8619  -5.8618  -5.7187  -5.7187  -5.5488  -5.5487
     0.8336   1.0745   1.1538   1.9307   2.0665   2.8219   4.9569   4.9569
     5.0485   5.4587   5.4587   5.5334   5.5678   5.5678   5.7181   5.7713
     5.7713   5.9606   6.0343   6.0343   6.2287   6.2288   6.2708   6.4270
     6.4277   6.4278   6.5198   6.7419   6.7419   7.0563   7.0563   7.1856
     7.3428   7.6269   7.6270   7.7568   7.8747   7.8748   7.9935   7.9935
     8.1779   8.3390   8.3552   8.3553   8.5307   8.5325   8.5325   8.6601
     8.6852   8.6852   8.8259   8.8260   8.9753   8.9753   9.3287   9.3288
     9.3542   9.3699   9.3699   9.4390   9.4391   9.7812   9.7812  10.1130
    10.2551  10.2552  10.2682  10.4419  10.5435  10.6761  10.7432  10.9699
    10.9699  11.6245  11.6246  12.1286  12.1286  12.3375  12.3470  12.3470
    12.3993  12.4528  12.4895  12.4895  13.3156  13.3156  13.9538  13.9539
    14.4966  14.4966  15.0736  15.1942  15.2950  15.3449  16.3930  16.3930
    16.5193  16.5193  16.5589  16.5589  16.8604  16.9018  17.1074  17.1074
    17.1877  17.1878  17.5967  17.5967  18.2931  19.5787  19.7958  19.9699
    20.6922  20.6922  20.9532  21.0366  21.6869  21.6870  21.7961  21.7962
    22.1214  22.1214  22.8324  22.9875  23.0320  23.0350  23.1849  23.6825

     occupation numbers 
     1.0000   1.0000   1.0000   1.0000   1.0000   1.0000   1.0000   1.0000
     1.0000   1.0000   1.0000   1.0000   1.0000   1.0000   1.0000   1.0000
     1.0000   1.0000   1.0000   1.0000   1.0000   1.0000   1.0000   1.0000
     1.0000   1.0000   1.0000   1.0000   1.0000   1.0000   1.0000   1.0000
     1.0000   1.0000   1.0000   1.0000   1.0000   1.0000   1.0000   1.0000
     1.0000   1.0000   1.0000   1.0000   1.0000   1.0000   1.0000   1.0000
     1.0000   1.0000   1.0000   1.0000   1.0000   1.0000   1.0000   1.0000
     1.0000   1.0000   1.0000   1.0000   1.0000   1.0000   1.0000   1.0000
     1.0000   1.0000   1.0000   1.0000   1.0000   1.0000   1.0000   1.0000
     1.0000   1.0000   1.0000   1.0000   1.0000   1.0000   1.0000   1.0000
     1.0000   1.0000   1.0000   1.0000   1.0000   1.0000   1.0000   1.0000
     1.0000   1.0000   1.0000   1.0000   1.0000   1.0000   1.0000   1.0000
     1.0000   1.0000   1.0000   1.0000   1.0000   1.0000   1.0000   1.0000
     1.0000   1.0000   1.0000   1.0000   1.0000   1.0000   1.0000   1.0000
     1.0000   1.0000   1.0000   1.0000   1.0000   1.0000   1.0000   1.0000
     1.0000   1.0000   1.0000   1.0000   1.0000   1.0000   1.0000   1.0000
     1.0000   1.0000   1.0000   1.0000   1.0000   1.0000   1.0000   1.0000
     1.0000   1.0000   1.0000   1.0000   1.0000   1.0000   1.0000   1.0000
     1.0000   0.9897   0.9897   0.0017   0.0017   0.0000   0.0000   0.0000
     0.0000   0.0000   0.0000   0.0000   0.0000   0.0000   0.0000   0.0000
     0.0000   0.0000   0.0000   0.0000   0.0000   0.0000   0.0000   0.0000
     0.0000   0.0000   0.0000   0.0000   0.0000   0.0000   0.0000   0.0000
     0.0000   0.0000   0.0000   0.0000   0.0000   0.0000   0.0000   0.0000
     0.0000   0.0000   0.0000   0.0000   0.0000   0.0000   0.0000   0.0000
     0.0000   0.0000   0.0000   0.0000   0.0000   0.0000   0.0000   0.0000

          k = 0.0000-0.5774 0.0000 ( 19916 PWs)   bands (ev):

   -79.2265 -79.0263 -78.9404 -74.2877 -74.2184 -74.1588 -45.2422 -45.1886
   -45.1886 -45.0146 -45.0146 -45.0086 -44.9976 -44.8879 -44.8879 -40.4355
   -40.3863 -40.3863 -40.3572 -40.3218 -40.3218 -40.3179 -40.2588 -40.2588
   -11.2429 -11.2147 -11.1963 -11.1914 -11.1874 -11.1775 -11.1685 -11.1564
   -11.1395 -11.1375 -11.1263 -11.1229 -11.1182 -11.1148 -11.1076 -11.1008
   -11.0884 -11.0857 -11.0797 -11.0746 -11.0736 -11.0712 -11.0675 -11.0583
   -11.0560 -11.0468 -11.0440 -11.0359 -11.0331 -11.0217  -7.2273  -7.1879
    -7.0222  -6.8539  -6.8168  -6.4403  -6.4174  -6.3104  -6.1752  -6.0956
    -6.0599  -6.0343  -5.9685  -5.8939  -5.7923  -5.7483  -5.6570  -5.5688
     1.0192   1.2413   1.2636   1.5596   1.6231   1.8353   5.0602   5.3404
     5.3882   5.5065   5.6887   5.7019   5.8100   5.8408   5.8686   6.0330
     6.0663   6.1204   6.2290   6.2947   6.4980   6.5842   6.6543   6.7427
     6.7753   6.8290   6.9996   7.0635   7.1692   7.2293   7.2739   7.4038
     7.4739   7.5274   7.6481   7.7332   7.7849   7.8138   7.9084   7.9484
     8.0760   8.1624   8.2055   8.2877   8.3533   8.3847   8.4889   8.5242
     8.5754   8.6453   8.7199   8.7819   8.9521   9.0830   9.1030   9.1427
     9.2003   9.2400   9.2737   9.3869   9.4297   9.5116   9.5698   9.8771
    10.0660  10.1954  10.3791  10.4080  10.4626  10.6241  10.9025  10.9449
    11.0517  11.0893  11.5589  12.0869  12.1571  12.2732  12.3340  12.3751
    12.4407  12.4904  12.6707  12.7510  13.3588  13.4418  13.6182  13.7986
    13.8808  14.3840  14.5970  15.1372  15.1808  15.3703  15.4494  15.4815
    15.5284  15.5685  15.6488  16.6479  16.6926  16.7728  16.8430  16.9325
    16.9968  17.0655  17.1229  17.2006  20.0257  20.1972  20.4722  20.9818
    21.1159  21.2048  21.6943  21.8407  21.9746  22.2839  22.3249  22.3431
    22.4638  22.5066  22.8298  22.8882  23.1104  23.1764  23.2345  23.2893

     occupation numbers 
     1.0000   1.0000   1.0000   1.0000   1.0000   1.0000   1.0000   1.0000
     1.0000   1.0000   1.0000   1.0000   1.0000   1.0000   1.0000   1.0000
     1.0000   1.0000   1.0000   1.0000   1.0000   1.0000   1.0000   1.0000
     1.0000   1.0000   1.0000   1.0000   1.0000   1.0000   1.0000   1.0000
     1.0000   1.0000   1.0000   1.0000   1.0000   1.0000   1.0000   1.0000
     1.0000   1.0000   1.0000   1.0000   1.0000   1.0000   1.0000   1.0000
     1.0000   1.0000   1.0000   1.0000   1.0000   1.0000   1.0000   1.0000
     1.0000   1.0000   1.0000   1.0000   1.0000   1.0000   1.0000   1.0000
     1.0000   1.0000   1.0000   1.0000   1.0000   1.0000   1.0000   1.0000
     1.0000   1.0000   1.0000   1.0000   1.0000   1.0000   1.0000   1.0000
     1.0000   1.0000   1.0000   1.0000   1.0000   1.0000   1.0000   1.0000
     1.0000   1.0000   1.0000   1.0000   1.0000   1.0000   1.0000   1.0000
     1.0000   1.0000   1.0000   1.0000   1.0000   1.0000   1.0000   1.0000
     1.0000   1.0000   1.0000   1.0000   1.0000   1.0000   1.0000   1.0000
     1.0000   1.0000   1.0000   1.0000   1.0000   1.0000   1.0000   1.0000
     1.0000   1.0000   1.0000   1.0000   1.0000   1.0000   1.0000   1.0000
     1.0000   1.0000   1.0000   1.0000   1.0000   1.0000   1.0000   1.0000
     1.0000   1.0000   1.0000   1.0000   1.0000   1.0000   1.0000   1.0000
     1.0000   1.0000   0.9986   0.0064   0.0006   0.0000   0.0000   0.0000
     0.0000   0.0000   0.0000   0.0000   0.0000   0.0000   0.0000   0.0000
     0.0000   0.0000   0.0000   0.0000   0.0000   0.0000   0.0000   0.0000
     0.0000   0.0000   0.0000   0.0000   0.0000   0.0000   0.0000   0.0000
     0.0000   0.0000   0.0000   0.0000   0.0000   0.0000   0.0000   0.0000
     0.0000   0.0000   0.0000   0.0000   0.0000   0.0000   0.0000   0.0000
     0.0000   0.0000   0.0000   0.0000   0.0000   0.0000   0.0000   0.0000

     the Fermi energy is    11.8473 ev

!    total energy              =   -3195.11711272 Ry
     estimated scf accuracy    <       0.00029421 Ry
     smearing contrib. (-TS)   =      -0.00047888 Ry
     internal energy E=F+TS    =   -3195.11663384 Ry

     The total energy is F=E-TS. E is the sum of the following terms:
     one-electron contribution =   -1315.73867727 Ry
     hartree contribution      =     843.49850414 Ry
     xc contribution           =    -695.22733154 Ry
     ewald contribution        =   -2027.64912917 Ry

     total magnetization       =     0.00 Bohr mag/cell
     absolute magnetization    =    27.56 Bohr mag/cell

     convergence has been achieved in  13 iterations

     Writing output data file /home/aldair1809/Documentos/QE/4BFO/UHUBBARD/temp/ecut_ecutwfc_60.in/bifeo3-scf.save/

     init_run     :     36.21s CPU     37.16s WALL (       1 calls)
     electrons    :   1919.67s CPU   1948.16s WALL (       1 calls)

     Called by init_run:
     wfcinit      :     32.09s CPU     32.57s WALL (       1 calls)
     wfcinit:atom :      0.04s CPU      0.10s WALL (       4 calls)
     wfcinit:wfcr :     31.68s CPU     31.98s WALL (       4 calls)
     potinit      :      0.96s CPU      1.01s WALL (       1 calls)
     hinit0       :      1.80s CPU      1.82s WALL (       1 calls)

     Called by electrons:
     c_bands      :   1734.93s CPU   1749.73s WALL (      13 calls)
     sum_band     :    162.08s CPU    170.13s WALL (      13 calls)
     v_of_rho     :      3.51s CPU      3.68s WALL (      14 calls)
     v_h          :      0.13s CPU      0.14s WALL (      14 calls)
     v_xc         :      3.38s CPU      3.54s WALL (      14 calls)
     newd         :     19.73s CPU     25.42s WALL (      14 calls)
     mix_rho      :      0.83s CPU      0.85s WALL (      13 calls)

     Called by c_bands:
     init_us_2    :      2.43s CPU      2.46s WALL (     108 calls)
     ccgdiagg     :   1326.36s CPU   1338.24s WALL (      52 calls)
     wfcrot       :    438.09s CPU    441.30s WALL (      52 calls)

     Called by sum_band:
     sum_band:wei :      0.01s CPU      0.01s WALL (      13 calls)
     sum_band:loo :    131.45s CPU    133.19s WALL (      13 calls)
     sum_band:buf :      0.47s CPU      0.47s WALL (      52 calls)
     sum_band:ini :      1.18s CPU      1.18s WALL (      52 calls)
     sum_band:cal :     84.70s CPU     84.89s WALL (      52 calls)
     sum_band:bec :      0.26s CPU      0.26s WALL (      52 calls)
     addusdens    :     29.77s CPU     36.03s WALL (      13 calls)
     addusd:skk   :      0.10s CPU      0.11s WALL (      52 calls)
     addusd:dgemm :     15.31s CPU     20.46s WALL (     104 calls)
     addusd:qvan2 :     14.07s CPU     14.12s WALL (     104 calls)

     Called by *cgdiagg:
     h_psi        :    830.34s CPU    842.23s WALL (   23675 calls)
     s_psi        :    469.84s CPU    471.01s WALL (   47298 calls)

     Called by h_psi:
     h_psi:calbec :    287.80s CPU    290.01s WALL (   23675 calls)
     vloc_psi     :    263.99s CPU    273.02s WALL (   23675 calls)
     add_vuspsi   :    277.30s CPU    278.00s WALL (   23675 calls)
     hs_1psi      :    776.75s CPU    786.20s WALL (   23623 calls)
     s_1psi       :    398.49s CPU    400.11s WALL (   23623 calls)

     General routines
     calbec       :    578.51s CPU    582.17s WALL (   47350 calls)
     fft          :      1.95s CPU      2.12s WALL (     292 calls)
     ffts         :      0.20s CPU      0.21s WALL (      26 calls)
     fftw         :    260.50s CPU    269.97s WALL (   78478 calls)

     Parallel routines
     fft_scatt_xy :     62.79s CPU     63.83s WALL (   78796 calls)
     fft_scatt_yz :     35.68s CPU     40.16s WALL (   78796 calls)

     PWSCF        :  32m36.37s CPU  33m 6.67s WALL


   This run was terminated on:  15: 6:55  29Sep2024            

=------------------------------------------------------------------------------=
   JOB DONE.
=------------------------------------------------------------------------------=
