
     Program PWSCF v.6.7MaX starts on 29Sep2024 at 14: 6: 6 

     This program is part of the open-source Quantum ESPRESSO suite
     for quantum simulation of materials; please cite
         "P. Giannozzi et al., J. Phys.:Condens. Matter 21 395502 (2009);
         "P. Giannozzi et al., J. Phys.:Condens. Matter 29 465901 (2017);
          URL http://www.quantum-espresso.org", 
     in publications or presentations arising from this work. More details at
     http://www.quantum-espresso.org/quote

     Parallel version (MPI), running on     4 processors

     MPI processes distributed on     1 nodes
     R & G space division:  proc/nbgrp/npool/nimage =       4
     Waiting for input...
     Reading input from standard input

     Current dimensions of program PWSCF are:
     Max number of different atomic species (ntypx) = 10
     Max number of k-points (npk) =  40000
     Max angular momentum in pseudopotentials (lmaxx) =  3
     Message from routine iosys:
     wrong startingpot: use default (1)

     Subspace diagonalization in iterative solution of the eigenvalue problem:
     one sub-group per band group will be used
     scalapack distributed-memory algorithm (size of sub-group:  2*  2 procs)

     Message from routine setup:
     using ibrav=0 with symmetry is DISCOURAGED, use correct ibrav instead

     Parallelization info
     --------------------
     sticks:   dense  smooth     PW     G-vecs:    dense   smooth      PW
     Min         418     418    115                34896    34896    4993
     Max         420     420    117                34902    34902    4996
     Sum        1675    1675    463               139595   139595   19979



     bravais-lattice index     =            0
     lattice parameter (alat)  =      10.5468  a.u.
     unit-cell volume          =    2535.5110 (a.u.)^3
     number of atoms/cell      =           30
     number of atomic types    =            4
     number of electrons       =       294.00
     number of Kohn-Sham states=          200
     kinetic-energy cutoff     =      55.0000  Ry
     charge density cutoff     =     220.0000  Ry
     scf convergence threshold =      1.0E-03
     mixing beta               =       0.2000
     number of iterations used =            8  plain     mixing
     Exchange-correlation=  SLA  PW   PBX  PBC
                           (   1   4   3   4   0   0   0)

     celldm(1)=  10.546849  celldm(2)=   0.000000  celldm(3)=   0.000000
     celldm(4)=   0.000000  celldm(5)=   0.000000  celldm(6)=   0.000000

     crystal axes: (cart. coord. in units of alat)
               a(1) = (   1.000000  -0.000000  -0.000000 )  
               a(2) = (  -0.500000   0.866025  -0.000000 )  
               a(3) = (   0.000000  -0.000000   2.495552 )  

     reciprocal axes: (cart. coord. in units 2 pi/alat)
               b(1) = (  1.000000  0.577350  0.000000 )  
               b(2) = (  0.000000  1.154701  0.000000 )  
               b(3) = (  0.000000  0.000000  0.400713 )  


     PseudoPot. # 1 for O  read from file:
     /home/aldair1809/Programas/QE/q-e-qe-7.3/pseudo/o_pbe_v1.2.uspp.F.UPF
     MD5 check sum: 734c27235a0248c51dbae37a1fbe46ec
     Pseudo is Ultrasoft + core correction, Zval =  6.0
     Generated by new atomic code, or converted to UPF format
     Using radial grid of  737 points,  5 beta functions with: 
                l(1) =   0
                l(2) =   0
                l(3) =   1
                l(4) =   1
                l(5) =   2
     Q(r) pseudized with  8 coefficients,  rinner =    0.900   0.900   0.900
                                                       0.900   0.900

     PseudoPot. # 2 for Bi read from file:
     /home/aldair1809/Programas/QE/q-e-qe-7.3/pseudo/bi_pbe_v1.uspp.F.UPF
     MD5 check sum: cceb9f28ec65b6d7ff33140f5b0b1758
     Pseudo is Ultrasoft + core correction, Zval = 15.0
     Generated by new atomic code, or converted to UPF format
     Using radial grid of  899 points,  6 beta functions with: 
                l(1) =   0
                l(2) =   0
                l(3) =   1
                l(4) =   1
                l(5) =   2
                l(6) =   2
     Q(r) pseudized with  6 coefficients,  rinner =    1.000   1.000   1.000
                                                       1.000   1.000

     PseudoPot. # 3 for Fe read from file:
     /home/aldair1809/Programas/QE/q-e-qe-7.3/pseudo/fe_pbe_v1.5.uspp.F.UPF
     MD5 check sum: a130daea23fe5165f5d574ae7f82ed95
     Pseudo is Ultrasoft + core correction, Zval = 16.0
     Generated by new atomic code, or converted to UPF format
     Using radial grid of  861 points,  6 beta functions with: 
                l(1) =   0
                l(2) =   0
                l(3) =   1
                l(4) =   1
                l(5) =   2
                l(6) =   2
     Q(r) pseudized with  8 coefficients,  rinner =    1.000   1.000   1.000
                                                       1.000   1.000

     PseudoPot. # 4 for Fe read from file:
     /home/aldair1809/Programas/QE/q-e-qe-7.3/pseudo/fe_pbe_v1.5.uspp.F.UPF
     MD5 check sum: a130daea23fe5165f5d574ae7f82ed95
     Pseudo is Ultrasoft + core correction, Zval = 16.0
     Generated by new atomic code, or converted to UPF format
     Using radial grid of  861 points,  6 beta functions with: 
                l(1) =   0
                l(2) =   0
                l(3) =   1
                l(4) =   1
                l(5) =   2
                l(6) =   2
     Q(r) pseudized with  8 coefficients,  rinner =    1.000   1.000   1.000
                                                       1.000   1.000

     atomic species   valence    mass     pseudopotential
        O              6.00    15.99940     O ( 1.00)
        Bi            15.00   208.98040     Bi( 1.00)
        Fe1           16.00    55.84500     Fe( 1.00)
        Fe2           16.00    55.84500     Fe( 1.00)

     Starting magnetic structure 
     atomic species   magnetization
        O            0.000
        Bi           0.000
        Fe1         -0.800
        Fe2          0.800

      3 Sym. Ops. (no inversion) found


                                    s                        frac. trans.

      isym =  1     identity                                     

 cryst.   s( 1) = (     1          0          0      )
                  (     0          1          0      )
                  (     0          0          1      )

 cart.    s( 1) = (  1.0000000 -0.0000000  0.0000000 )
                  (  0.0000000  1.0000000  0.0000000 )
                  (  0.0000000  0.0000000  1.0000000 )


      isym =  2     120 deg rotation - cryst. axis [0,0,1]       

 cryst.   s( 2) = (     0          1          0      )
                  (    -1         -1          0      )
                  (     0          0          1      )

 cart.    s( 2) = ( -0.5000000 -0.8660254  0.0000000 )
                  (  0.8660254 -0.5000000  0.0000000 )
                  (  0.0000000  0.0000000  1.0000000 )


      isym =  3     120 deg rotation - cryst. axis [0,0,-1]      

 cryst.   s( 3) = (    -1         -1          0      )
                  (     1          0          0      )
                  (     0          0          1      )

 cart.    s( 3) = ( -0.5000000  0.8660254  0.0000000 )
                  ( -0.8660254 -0.5000000  0.0000000 )
                  (  0.0000000  0.0000000  1.0000000 )


   Cartesian axes

     site n.     atom                  positions (alat units)
         1           Fe1 tau(   1) = (   0.0000000   0.0000000   1.9384582  )
         2           Fe1 tau(   2) = (  -0.0000005   0.5773506   2.3615556  )
         3           Fe1 tau(   3) = (   0.5000005   0.2886748   1.5200787  )
         4           Fe2 tau(   4) = (   0.5000005   0.2886748   0.2722626  )
         5           Fe2 tau(   5) = (   0.0000000   0.0000000   0.6907071  )
         6           Fe2 tau(   6) = (  -0.0000005   0.5773506   1.1137452  )
         7           Bi  tau(   7) = (   0.5000005   0.2886748   2.0843143  )
         8           Bi  tau(   8) = (  -0.0000005   0.5773506   1.6713980  )
         9           Bi  tau(   9) = (  -0.0000005   0.5773506   0.4235448  )
        10           Bi  tau(  10) = (   0.0000000   0.0000000   0.0002821  )
        11           Bi  tau(  11) = (   0.0000000   0.0000000   1.2481025  )
        12           Bi  tau(  12) = (   0.5000005   0.2886748   0.8364865  )
        13           O   tau(  13) = (  -0.3105904   0.6551932   2.2011299  )
        14           O   tau(  14) = (   0.0878817   0.2694488   2.2011299  )
        15           O   tau(  15) = (   0.2227102   0.8074080   2.2011299  )
        16           O   tau(  16) = (   0.4087504   0.5589755   1.7846473  )
        17           O   tau(  17) = (   0.3115373   0.0745013   1.7846473  )
        18           O   tau(  18) = (   0.7797108   0.2325494   1.7846473  )
        19           O   tau(  19) = (   0.6884743   0.0745026   0.5368244  )
        20           O   tau(  20) = (   0.5912412   0.5589858   0.5368244  )
        21           O   tau(  21) = (   0.2202830   0.2325379   0.5368244  )
        22           O   tau(  22) = (  -0.0823010   0.8482993   0.1166193  )
        23           O   tau(  23) = (  -0.1934983   0.3706010   0.1166193  )
        24           O   tau(  24) = (   0.2757993   0.5131505   0.1166193  )
        25           O   tau(  25) = (   0.1934855   0.3705936   1.3644430  )
        26           O   tau(  26) = (   0.0823138   0.8482919   1.3644430  )
        27           O   tau(  27) = (  -0.2757993   0.5131653   1.3644430  )
        28           O   tau(  28) = (  -0.0878870   0.2694458   0.9533686  )
        29           O   tau(  29) = (   0.3105971   0.6551893   0.9533686  )
        30           O   tau(  30) = (  -0.2227086   0.8074149   0.9533686  )

   Crystallographic axes

     site n.     atom                  positions (cryst. coord.)
         1           Fe1 tau(   1) = (  0.0000000  0.0000000  0.7767652  )
         2           Fe1 tau(   2) = (  0.3333330  0.6666670  0.9463058  )
         3           Fe1 tau(   3) = (  0.6666670  0.3333330  0.6091152  )
         4           Fe2 tau(   4) = (  0.6666670  0.3333330  0.1090991  )
         5           Fe2 tau(   5) = (  0.0000000  0.0000000  0.2767753  )
         6           Fe2 tau(   6) = (  0.3333330  0.6666670  0.4462921  )
         7           Bi  tau(   7) = (  0.6666670  0.3333330  0.8352117  )
         8           Bi  tau(   8) = (  0.3333330  0.6666670  0.6697508  )
         9           Bi  tau(   9) = (  0.3333330  0.6666670  0.1697199  )
        10           Bi  tau(  10) = (  0.0000000  0.0000000  0.0001130  )
        11           Bi  tau(  11) = (  0.0000000  0.0000000  0.5001308  )
        12           Bi  tau(  12) = (  0.6666670  0.3333330  0.3351910  )
        13           O   tau(  13) = (  0.0676856  0.7565520  0.8820212  )
        14           O   tau(  14) = (  0.2434480  0.3111326  0.8820212  )
        15           O   tau(  15) = (  0.6888674  0.9323144  0.8820212  )
        16           O   tau(  16) = (  0.7314750  0.6454493  0.7151312  )
        17           O   tau(  17) = (  0.3545507  0.0860267  0.7151312  )
        18           O   tau(  18) = (  0.9139733  0.2685250  0.7151312  )
        19           O   tau(  19) = (  0.7314884  0.0860282  0.2151125  )
        20           O   tau(  20) = (  0.9139718  0.6454612  0.2151125  )
        21           O   tau(  21) = (  0.3545388  0.2685116  0.2151125  )
        22           O   tau(  22) = (  0.4074649  0.9795317  0.0467309  )
        23           O   tau(  23) = (  0.0204683  0.4279331  0.0467309  )
        24           O   tau(  24) = (  0.5720669  0.5925351  0.0467309  )
        25           O   tau(  25) = (  0.4074478  0.4279246  0.5467499  )
        26           O   tau(  26) = (  0.5720754  0.9795232  0.5467499  )
        27           O   tau(  27) = (  0.0204768  0.5925522  0.5467499  )
        28           O   tau(  28) = (  0.0676775  0.3111292  0.3820271  )
        29           O   tau(  29) = (  0.6888708  0.7565474  0.3820271  )
        30           O   tau(  30) = (  0.2434526  0.9323225  0.3820271  )

     number of k points=     2  Gaussian smearing, width (Ry)=  0.0100
                       cart. coord. in units 2pi/alat
        k(    1) = (   0.0000000   0.0000000   0.0000000), wk =   0.2500000
        k(    2) = (   0.0000000  -0.5773503   0.0000000), wk =   0.7500000

                       cryst. coord.
        k(    1) = (   0.0000000   0.0000000   0.0000000), wk =   0.2500000
        k(    2) = (   0.0000000  -0.5000000   0.0000000), wk =   0.7500000

     Dense  grid:   139595 G-vectors     FFT dimensions: (  50,  50, 125)

     Dynamical RAM for                 wfc:      13.32 MB

     Dynamical RAM for     wfc (w. buffer):      66.62 MB

     Dynamical RAM for           str. fact:       2.13 MB

     Dynamical RAM for           local pot:       0.00 MB

     Dynamical RAM for          nlocal pot:      29.98 MB

     Dynamical RAM for                qrad:       4.76 MB

     Dynamical RAM for          rho,v,vnew:       6.86 MB

     Dynamical RAM for               rhoin:       2.29 MB

     Dynamical RAM for            rho*nmix:      17.04 MB

     Dynamical RAM for           G-vectors:       2.26 MB

     Dynamical RAM for          h,s,v(r/c):       0.46 MB

     Dynamical RAM for          <psi|beta>:       1.37 MB

     Dynamical RAM for      wfcinit/wfcrot:      28.13 MB

     Dynamical RAM for           addusdens:     109.16 MB

     Estimated static dynamical RAM per process >     138.26 MB

     Estimated max dynamical RAM per process >     247.42 MB

     Estimated total dynamical RAM >     989.68 MB

     Check: negative core charge=   -0.000015
     Generating pointlists ...
     new r_m :   0.1458 (alat units)  1.5374 (a.u.) for type    1
     new r_m :   0.1687 (alat units)  1.7788 (a.u.) for type    2
     new r_m :   0.1458 (alat units)  1.5374 (a.u.) for type    3
     new r_m :   0.1458 (alat units)  1.5374 (a.u.) for type    4

     Initial potential from superposition of free atoms

     starting charge  281.99969, renormalised to  294.00000

     negative rho (up, down):  1.292E-01 1.292E-01
     Starting wfcs are  204 randomized atomic wfcs

     total cpu time spent up to now is       32.1 secs

     Self-consistent Calculation

     iteration #  1     ecut=    55.00 Ry     beta= 0.20
     CG style diagonalization
     ethr =  1.00E-02,  avg # of iterations =  2.6

     negative rho (up, down):  1.250E-01 1.250E-01

     total cpu time spent up to now is      136.4 secs

     total energy              =   -3189.35785081 Ry
     estimated scf accuracy    <      22.83341860 Ry

     total magnetization       =    -0.00 Bohr mag/cell
     absolute magnetization    =    30.54 Bohr mag/cell

     iteration #  2     ecut=    55.00 Ry     beta= 0.20
     CG style diagonalization
     ethr =  7.77E-03,  avg # of iterations =  3.0

     negative rho (up, down):  1.209E-01 1.209E-01

     total cpu time spent up to now is      244.0 secs

     total energy              =   -3192.24482529 Ry
     estimated scf accuracy    <       9.33468406 Ry

     total magnetization       =     0.00 Bohr mag/cell
     absolute magnetization    =    29.72 Bohr mag/cell

     iteration #  3     ecut=    55.00 Ry     beta= 0.20
     CG style diagonalization
     ethr =  3.18E-03,  avg # of iterations =  3.1

     negative rho (up, down):  1.219E-01 1.219E-01

     total cpu time spent up to now is      360.7 secs

     total energy              =   -3193.75810166 Ry
     estimated scf accuracy    <       4.39272956 Ry

     total magnetization       =    -0.00 Bohr mag/cell
     absolute magnetization    =    28.26 Bohr mag/cell

     iteration #  4     ecut=    55.00 Ry     beta= 0.20
     CG style diagonalization
     ethr =  1.49E-03,  avg # of iterations =  3.2

     negative rho (up, down):  1.199E-01 1.199E-01

     total cpu time spent up to now is      493.7 secs

     total energy              =   -3194.83727845 Ry
     estimated scf accuracy    <       2.29637996 Ry

     total magnetization       =     0.00 Bohr mag/cell
     absolute magnetization    =    29.08 Bohr mag/cell

     iteration #  5     ecut=    55.00 Ry     beta= 0.20
     CG style diagonalization
     ethr =  7.81E-04,  avg # of iterations =  3.1

     negative rho (up, down):  1.200E-01 1.199E-01

     total cpu time spent up to now is      613.2 secs

     total energy              =   -3195.11895856 Ry
     estimated scf accuracy    <       0.14624471 Ry

     total magnetization       =     0.00 Bohr mag/cell
     absolute magnetization    =    27.67 Bohr mag/cell

     iteration #  6     ecut=    55.00 Ry     beta= 0.20
     CG style diagonalization
     c_bands:  1 eigenvalues not converged
     ethr =  4.97E-05,  avg # of iterations =  4.0

     negative rho (up, down):  1.203E-01 1.203E-01

     total cpu time spent up to now is      766.4 secs

     total energy              =   -3195.03057567 Ry
     estimated scf accuracy    <       1.09245068 Ry

     total magnetization       =    -0.01 Bohr mag/cell
     absolute magnetization    =    26.13 Bohr mag/cell

     iteration #  7     ecut=    55.00 Ry     beta= 0.20
     CG style diagonalization
     ethr =  4.97E-05,  avg # of iterations =  3.5

     negative rho (up, down):  1.209E-01 1.209E-01

     total cpu time spent up to now is      903.4 secs

     total energy              =   -3195.11165083 Ry
     estimated scf accuracy    <       0.07464148 Ry

     total magnetization       =    -0.00 Bohr mag/cell
     absolute magnetization    =    27.36 Bohr mag/cell

     iteration #  8     ecut=    55.00 Ry     beta= 0.20
     CG style diagonalization
     ethr =  2.54E-05,  avg # of iterations =  3.4

     negative rho (up, down):  1.210E-01 1.210E-01

     total cpu time spent up to now is     1034.1 secs

     total energy              =   -3195.11302803 Ry
     estimated scf accuracy    <       0.13570075 Ry

     total magnetization       =    -0.00 Bohr mag/cell
     absolute magnetization    =    27.72 Bohr mag/cell

     iteration #  9     ecut=    55.00 Ry     beta= 0.20
     CG style diagonalization
     ethr =  2.54E-05,  avg # of iterations =  3.1

     negative rho (up, down):  1.212E-01 1.212E-01

     total cpu time spent up to now is     1159.0 secs

     total energy              =   -3195.11087180 Ry
     estimated scf accuracy    <       0.03776248 Ry

     total magnetization       =     0.00 Bohr mag/cell
     absolute magnetization    =    27.58 Bohr mag/cell

     iteration # 10     ecut=    55.00 Ry     beta= 0.20
     CG style diagonalization
     ethr =  1.28E-05,  avg # of iterations =  3.1

     negative rho (up, down):  1.213E-01 1.213E-01

     total cpu time spent up to now is     1278.0 secs

     total energy              =   -3195.11057043 Ry
     estimated scf accuracy    <       0.00985877 Ry

     total magnetization       =    -0.00 Bohr mag/cell
     absolute magnetization    =    27.51 Bohr mag/cell

     iteration # 11     ecut=    55.00 Ry     beta= 0.20
     CG style diagonalization
     c_bands:  1 eigenvalues not converged
     c_bands:  1 eigenvalues not converged
     c_bands:  2 eigenvalues not converged
     c_bands:  1 eigenvalues not converged
     ethr =  3.35E-06,  avg # of iterations =  3.4

     negative rho (up, down):  1.213E-01 1.213E-01

     total cpu time spent up to now is     1425.6 secs

     total energy              =   -3195.11214853 Ry
     estimated scf accuracy    <       0.00277633 Ry

     total magnetization       =     0.00 Bohr mag/cell
     absolute magnetization    =    27.52 Bohr mag/cell

     iteration # 12     ecut=    55.00 Ry     beta= 0.20
     CG style diagonalization
     c_bands:  2 eigenvalues not converged
     c_bands:  2 eigenvalues not converged
     c_bands:  1 eigenvalues not converged
     c_bands:  1 eigenvalues not converged
     ethr =  9.44E-07,  avg # of iterations =  3.2

     negative rho (up, down):  1.212E-01 1.212E-01

     total cpu time spent up to now is     1541.1 secs

     total energy              =   -3195.11200076 Ry
     estimated scf accuracy    <       0.00264536 Ry

     total magnetization       =    -0.00 Bohr mag/cell
     absolute magnetization    =    27.51 Bohr mag/cell

     iteration # 13     ecut=    55.00 Ry     beta= 0.20
     CG style diagonalization
     c_bands:  1 eigenvalues not converged
     ethr =  9.00E-07,  avg # of iterations =  3.1

     negative rho (up, down):  1.211E-01 1.211E-01

     Magnetic moment per site:
     atom:    1    charge:   12.9907    magn:   -3.7214    constr:    0.0000
     atom:    2    charge:   13.0014    magn:   -3.6019    constr:    0.0000
     atom:    3    charge:   13.0146    magn:   -3.5940    constr:    0.0000
     atom:    4    charge:   13.0119    magn:    3.5945    constr:    0.0000
     atom:    5    charge:   12.9869    magn:    3.7208    constr:    0.0000
     atom:    6    charge:   13.0007    magn:    3.6025    constr:    0.0000
     atom:    7    charge:   10.4957    magn:   -0.0156    constr:    0.0000
     atom:    8    charge:   10.4954    magn:   -0.0123    constr:    0.0000
     atom:    9    charge:   10.4956    magn:    0.0122    constr:    0.0000
     atom:   10    charge:   10.4928    magn:   -0.0042    constr:    0.0000
     atom:   11    charge:   10.4932    magn:    0.0041    constr:    0.0000
     atom:   12    charge:   10.4960    magn:    0.0155    constr:    0.0000
     atom:   13    charge:    5.3950    magn:   -0.2078    constr:    0.0000
     atom:   14    charge:    5.3950    magn:   -0.2078    constr:    0.0000
     atom:   15    charge:    5.3950    magn:   -0.2078    constr:    0.0000
     atom:   16    charge:    5.3932    magn:   -0.2193    constr:    0.0000
     atom:   17    charge:    5.3932    magn:   -0.2193    constr:    0.0000
     atom:   18    charge:    5.3932    magn:   -0.2193    constr:    0.0000
     atom:   19    charge:    5.3952    magn:    0.2191    constr:    0.0000
     atom:   20    charge:    5.3952    magn:    0.2191    constr:    0.0000
     atom:   21    charge:    5.3952    magn:    0.2191    constr:    0.0000
     atom:   22    charge:    5.3864    magn:    0.0654    constr:    0.0000
     atom:   23    charge:    5.3864    magn:    0.0654    constr:    0.0000
     atom:   24    charge:    5.3864    magn:    0.0654    constr:    0.0000
     atom:   25    charge:    5.3851    magn:   -0.0656    constr:    0.0000
     atom:   26    charge:    5.3851    magn:   -0.0656    constr:    0.0000
     atom:   27    charge:    5.3851    magn:   -0.0656    constr:    0.0000
     atom:   28    charge:    5.3957    magn:    0.2076    constr:    0.0000
     atom:   29    charge:    5.3957    magn:    0.2076    constr:    0.0000
     atom:   30    charge:    5.3957    magn:    0.2076    constr:    0.0000

     total cpu time spent up to now is     1660.8 secs

     End of self-consistent calculation

 ------ SPIN UP ------------


          k = 0.0000 0.0000 0.0000 ( 17511 PWs)   bands (ev):

   -79.2158 -79.0198 -78.9317 -74.2756 -74.2180 -74.1501 -45.2321 -45.1782
   -45.1782 -45.0084 -45.0083 -45.0006 -44.9912 -44.8795 -44.8794 -40.4238
   -40.3741 -40.3741 -40.3566 -40.3212 -40.3212 -40.3094 -40.2501 -40.2501
   -11.2521 -11.2521 -11.2172 -11.2172 -11.1941 -11.1941 -11.1674 -11.1514
   -11.1436 -11.1435 -11.1397 -11.1397 -11.1279 -11.1279 -11.1056 -11.0912
   -11.0838 -11.0838 -11.0762 -11.0762 -11.0718 -11.0718 -11.0639 -11.0579
   -11.0579 -11.0476 -11.0353 -11.0353 -11.0192 -11.0192  -7.8883  -7.5070
    -7.4157  -6.6448  -6.5907  -6.1846  -6.1845  -6.0655  -6.0573  -6.0573
    -5.9637  -5.9637  -5.8645  -5.8644  -5.7144  -5.7144  -5.5442  -5.5442
     0.8310   1.0739   1.1519   1.9294   2.0649   2.8208   4.9554   4.9554
     5.0465   5.4583   5.4583   5.5329   5.5694   5.5694   5.7197   5.7723
     5.7723   5.9598   6.0365   6.0365   6.2307   6.2308   6.2707   6.4272
     6.4273   6.4294   6.5231   6.7453   6.7453   7.0599   7.0599   7.1854
     7.3441   7.6324   7.6325   7.7601   7.8781   7.8781   7.9959   7.9960
     8.1808   8.3413   8.3560   8.3560   8.5310   8.5353   8.5354   8.6611
     8.6861   8.6862   8.8278   8.8279   8.9784   8.9784   9.3283   9.3284
     9.3535   9.3695   9.3696   9.4384   9.4384   9.7832   9.7832  10.1133
    10.2559  10.2559  10.2677  10.4457  10.5423  10.6759  10.7408  10.9708
    10.9708  11.6251  11.6252  12.1365  12.1365  12.3453  12.3510  12.3510
    12.4017  12.4598  12.4965  12.4965  13.3225  13.3225  13.9583  13.9584
    14.5032  14.5032  15.0708  15.1932  15.2952  15.3456  16.3893  16.3893
    16.5196  16.5196  16.5580  16.5581  16.8596  16.9011  17.1065  17.1065
    17.1862  17.1862  17.5975  17.5975  18.2926  19.5788  19.7960  19.9727
    20.6916  20.6917  20.9550  21.0384  21.6866  21.6867  21.7973  21.7974
    22.1208  22.1208  22.8308  22.9847  23.0328  23.0348  23.1847  23.9826

     occupation numbers 
     1.0000   1.0000   1.0000   1.0000   1.0000   1.0000   1.0000   1.0000
     1.0000   1.0000   1.0000   1.0000   1.0000   1.0000   1.0000   1.0000
     1.0000   1.0000   1.0000   1.0000   1.0000   1.0000   1.0000   1.0000
     1.0000   1.0000   1.0000   1.0000   1.0000   1.0000   1.0000   1.0000
     1.0000   1.0000   1.0000   1.0000   1.0000   1.0000   1.0000   1.0000
     1.0000   1.0000   1.0000   1.0000   1.0000   1.0000   1.0000   1.0000
     1.0000   1.0000   1.0000   1.0000   1.0000   1.0000   1.0000   1.0000
     1.0000   1.0000   1.0000   1.0000   1.0000   1.0000   1.0000   1.0000
     1.0000   1.0000   1.0000   1.0000   1.0000   1.0000   1.0000   1.0000
     1.0000   1.0000   1.0000   1.0000   1.0000   1.0000   1.0000   1.0000
     1.0000   1.0000   1.0000   1.0000   1.0000   1.0000   1.0000   1.0000
     1.0000   1.0000   1.0000   1.0000   1.0000   1.0000   1.0000   1.0000
     1.0000   1.0000   1.0000   1.0000   1.0000   1.0000   1.0000   1.0000
     1.0000   1.0000   1.0000   1.0000   1.0000   1.0000   1.0000   1.0000
     1.0000   1.0000   1.0000   1.0000   1.0000   1.0000   1.0000   1.0000
     1.0000   1.0000   1.0000   1.0000   1.0000   1.0000   1.0000   1.0000
     1.0000   1.0000   1.0000   1.0000   1.0000   1.0000   1.0000   1.0000
     1.0000   1.0000   1.0000   1.0000   1.0000   1.0000   1.0000   1.0000
     1.0000   0.9908   0.9908   0.0015   0.0015   0.0000   0.0000   0.0000
     0.0000   0.0000   0.0000   0.0000   0.0000   0.0000   0.0000   0.0000
     0.0000   0.0000   0.0000   0.0000   0.0000   0.0000   0.0000   0.0000
     0.0000   0.0000   0.0000   0.0000   0.0000   0.0000   0.0000   0.0000
     0.0000   0.0000   0.0000   0.0000   0.0000   0.0000   0.0000   0.0000
     0.0000   0.0000   0.0000   0.0000   0.0000   0.0000   0.0000   0.0000
     0.0000   0.0000   0.0000   0.0000   0.0000   0.0000   0.0000   0.0000

          k = 0.0000-0.5774 0.0000 ( 17410 PWs)   bands (ev):

   -79.2158 -79.0198 -78.9317 -74.2756 -74.2180 -74.1501 -45.2321 -45.1782
   -45.1782 -45.0084 -45.0083 -45.0006 -44.9912 -44.8795 -44.8794 -40.4238
   -40.3741 -40.3741 -40.3566 -40.3212 -40.3212 -40.3094 -40.2501 -40.2501
   -11.2477 -11.2176 -11.2034 -11.1944 -11.1884 -11.1817 -11.1717 -11.1588
   -11.1437 -11.1394 -11.1324 -11.1289 -11.1194 -11.1173 -11.1118 -11.1011
   -11.0922 -11.0897 -11.0827 -11.0784 -11.0761 -11.0747 -11.0712 -11.0625
   -11.0600 -11.0507 -11.0460 -11.0387 -11.0348 -11.0223  -7.2328  -7.1912
    -7.0219  -6.8552  -6.8153  -6.4414  -6.4190  -6.3157  -6.1776  -6.0969
    -6.0641  -6.0365  -5.9691  -5.8972  -5.7893  -5.7451  -5.6533  -5.5645
     1.0164   1.2405   1.2621   1.5583   1.6211   1.8355   5.0589   5.3400
     5.3874   5.5069   5.6901   5.7029   5.8087   5.8421   5.8695   6.0345
     6.0670   6.1220   6.2296   6.2978   6.4987   6.5867   6.6564   6.7440
     6.7780   6.8314   7.0008   7.0662   7.1721   7.2307   7.2757   7.4044
     7.4751   7.5300   7.6505   7.7347   7.7870   7.8159   7.9116   7.9525
     8.0778   8.1656   8.2081   8.2900   8.3545   8.3856   8.4897   8.5247
     8.5765   8.6471   8.7208   8.7842   8.9529   9.0850   9.1023   9.1442
     9.2005   9.2412   9.2763   9.3886   9.4296   9.5119   9.5693   9.8782
    10.0690  10.1967  10.3790  10.4089  10.4618  10.6257  10.9009  10.9450
    11.0525  11.0888  11.5595  12.0947  12.1645  12.2823  12.3386  12.3797
    12.4441  12.4957  12.6759  12.7580  13.3656  13.4459  13.6254  13.8028
    13.8854  14.3898  14.5969  15.1355  15.1792  15.3698  15.4490  15.4804
    15.5274  15.5697  15.6498  16.6454  16.6920  16.7733  16.8419  16.9320
    16.9934  17.0616  17.1248  17.2035  20.0240  20.1961  20.4708  20.9844
    21.1206  21.2072  21.6941  21.8415  21.9742  22.2839  22.3220  22.3430
    22.4638  22.5100  22.8295  22.8882  23.1095  23.1760  23.2343  23.2891

     occupation numbers 
     1.0000   1.0000   1.0000   1.0000   1.0000   1.0000   1.0000   1.0000
     1.0000   1.0000   1.0000   1.0000   1.0000   1.0000   1.0000   1.0000
     1.0000   1.0000   1.0000   1.0000   1.0000   1.0000   1.0000   1.0000
     1.0000   1.0000   1.0000   1.0000   1.0000   1.0000   1.0000   1.0000
     1.0000   1.0000   1.0000   1.0000   1.0000   1.0000   1.0000   1.0000
     1.0000   1.0000   1.0000   1.0000   1.0000   1.0000   1.0000   1.0000
     1.0000   1.0000   1.0000   1.0000   1.0000   1.0000   1.0000   1.0000
     1.0000   1.0000   1.0000   1.0000   1.0000   1.0000   1.0000   1.0000
     1.0000   1.0000   1.0000   1.0000   1.0000   1.0000   1.0000   1.0000
     1.0000   1.0000   1.0000   1.0000   1.0000   1.0000   1.0000   1.0000
     1.0000   1.0000   1.0000   1.0000   1.0000   1.0000   1.0000   1.0000
     1.0000   1.0000   1.0000   1.0000   1.0000   1.0000   1.0000   1.0000
     1.0000   1.0000   1.0000   1.0000   1.0000   1.0000   1.0000   1.0000
     1.0000   1.0000   1.0000   1.0000   1.0000   1.0000   1.0000   1.0000
     1.0000   1.0000   1.0000   1.0000   1.0000   1.0000   1.0000   1.0000
     1.0000   1.0000   1.0000   1.0000   1.0000   1.0000   1.0000   1.0000
     1.0000   1.0000   1.0000   1.0000   1.0000   1.0000   1.0000   1.0000
     1.0000   1.0000   1.0000   1.0000   1.0000   1.0000   1.0000   1.0000
     1.0000   1.0000   0.9988   0.0058   0.0006   0.0000   0.0000   0.0000
     0.0000   0.0000   0.0000   0.0000   0.0000   0.0000   0.0000   0.0000
     0.0000   0.0000   0.0000   0.0000   0.0000   0.0000   0.0000   0.0000
     0.0000   0.0000   0.0000   0.0000   0.0000   0.0000   0.0000   0.0000
     0.0000   0.0000   0.0000   0.0000   0.0000   0.0000   0.0000   0.0000
     0.0000   0.0000   0.0000   0.0000   0.0000   0.0000   0.0000   0.0000
     0.0000   0.0000   0.0000   0.0000   0.0000   0.0000   0.0000   0.0000

 ------ SPIN DOWN ----------


          k = 0.0000 0.0000 0.0000 ( 17511 PWs)   bands (ev):

   -79.2156 -79.0205 -78.9354 -74.2770 -74.2173 -74.1476 -45.2321 -45.1776
   -45.1776 -45.0090 -45.0090 -45.0042 -44.9917 -44.8829 -44.8829 -40.4251
   -40.3757 -40.3757 -40.3561 -40.3206 -40.3206 -40.3070 -40.2477 -40.2477
   -11.2509 -11.2509 -11.2176 -11.2176 -11.1943 -11.1943 -11.1642 -11.1544
   -11.1428 -11.1428 -11.1381 -11.1381 -11.1304 -11.1304 -11.1045 -11.0920
   -11.0834 -11.0834 -11.0747 -11.0747 -11.0718 -11.0718 -11.0609 -11.0598
   -11.0598 -11.0510 -11.0330 -11.0330 -11.0219 -11.0219  -7.8863  -7.5064
    -7.4171  -6.6436  -6.5911  -6.1808  -6.1807  -6.0675  -6.0552  -6.0551
    -5.9632  -5.9632  -5.8627  -5.8626  -5.7183  -5.7183  -5.5485  -5.5485
     0.8320   1.0731   1.1522   1.9292   2.0652   2.8205   4.9572   4.9572
     5.0485   5.4592   5.4593   5.5337   5.5692   5.5692   5.7190   5.7730
     5.7730   5.9611   6.0360   6.0360   6.2305   6.2306   6.2714   6.4275
     6.4276   6.4279   6.5208   6.7435   6.7436   7.0600   7.0600   7.1858
     7.3438   7.6302   7.6302   7.7596   7.8768   7.8769   7.9961   7.9962
     8.1792   8.3422   8.3566   8.3566   8.5311   8.5344   8.5345   8.6607
     8.6865   8.6865   8.8276   8.8277   8.9769   8.9769   9.3284   9.3285
     9.3543   9.3697   9.3697   9.4389   9.4390   9.7812   9.7812  10.1125
    10.2574  10.2574  10.2675  10.4429  10.5432  10.6766  10.7426  10.9717
    10.9717  11.6274  11.6274  12.1351  12.1351  12.3437  12.3513  12.3513
    12.4018  12.4596  12.4967  12.4967  13.3215  13.3215  13.9583  13.9584
    14.5019  14.5020  15.0726  15.1939  15.2943  15.3446  16.3917  16.3918
    16.5181  16.5182  16.5580  16.5580  16.8593  16.9010  17.1063  17.1063
    17.1870  17.1870  17.5960  17.5960  18.2942  19.5798  19.7964  19.9716
    20.6926  20.6927  20.9545  21.0375  21.6871  21.6872  21.7967  21.7968
    22.1214  22.1216  22.8323  22.9882  23.0322  23.0336  23.3109  23.6843

     occupation numbers 
     1.0000   1.0000   1.0000   1.0000   1.0000   1.0000   1.0000   1.0000
     1.0000   1.0000   1.0000   1.0000   1.0000   1.0000   1.0000   1.0000
     1.0000   1.0000   1.0000   1.0000   1.0000   1.0000   1.0000   1.0000
     1.0000   1.0000   1.0000   1.0000   1.0000   1.0000   1.0000   1.0000
     1.0000   1.0000   1.0000   1.0000   1.0000   1.0000   1.0000   1.0000
     1.0000   1.0000   1.0000   1.0000   1.0000   1.0000   1.0000   1.0000
     1.0000   1.0000   1.0000   1.0000   1.0000   1.0000   1.0000   1.0000
     1.0000   1.0000   1.0000   1.0000   1.0000   1.0000   1.0000   1.0000
     1.0000   1.0000   1.0000   1.0000   1.0000   1.0000   1.0000   1.0000
     1.0000   1.0000   1.0000   1.0000   1.0000   1.0000   1.0000   1.0000
     1.0000   1.0000   1.0000   1.0000   1.0000   1.0000   1.0000   1.0000
     1.0000   1.0000   1.0000   1.0000   1.0000   1.0000   1.0000   1.0000
     1.0000   1.0000   1.0000   1.0000   1.0000   1.0000   1.0000   1.0000
     1.0000   1.0000   1.0000   1.0000   1.0000   1.0000   1.0000   1.0000
     1.0000   1.0000   1.0000   1.0000   1.0000   1.0000   1.0000   1.0000
     1.0000   1.0000   1.0000   1.0000   1.0000   1.0000   1.0000   1.0000
     1.0000   1.0000   1.0000   1.0000   1.0000   1.0000   1.0000   1.0000
     1.0000   1.0000   1.0000   1.0000   1.0000   1.0000   1.0000   1.0000
     1.0000   0.9902   0.9902   0.0016   0.0016   0.0000   0.0000   0.0000
     0.0000   0.0000   0.0000   0.0000   0.0000   0.0000   0.0000   0.0000
     0.0000   0.0000   0.0000   0.0000   0.0000   0.0000   0.0000   0.0000
     0.0000   0.0000   0.0000   0.0000   0.0000   0.0000   0.0000   0.0000
     0.0000   0.0000   0.0000   0.0000   0.0000   0.0000   0.0000   0.0000
     0.0000   0.0000   0.0000   0.0000   0.0000   0.0000   0.0000   0.0000
     0.0000   0.0000   0.0000   0.0000   0.0000   0.0000   0.0000   0.0000

          k = 0.0000-0.5774 0.0000 ( 17410 PWs)   bands (ev):

   -79.2156 -79.0205 -78.9354 -74.2770 -74.2173 -74.1476 -45.2321 -45.1776
   -45.1776 -45.0090 -45.0090 -45.0042 -44.9917 -44.8829 -44.8829 -40.4251
   -40.3757 -40.3757 -40.3561 -40.3206 -40.3206 -40.3070 -40.2477 -40.2477
   -11.2463 -11.2180 -11.2004 -11.1946 -11.1903 -11.1808 -11.1717 -11.1597
   -11.1431 -11.1406 -11.1300 -11.1266 -11.1212 -11.1180 -11.1111 -11.1040
   -11.0913 -11.0888 -11.0829 -11.0778 -11.0769 -11.0744 -11.0712 -11.0616
   -11.0586 -11.0501 -11.0467 -11.0392 -11.0360 -11.0251  -7.2290  -7.1895
    -7.0230  -6.8548  -6.8173  -6.4414  -6.4184  -6.3125  -6.1764  -6.0968
    -6.0614  -6.0360  -5.9687  -5.8950  -5.7922  -5.7481  -5.6570  -5.5686
     1.0177   1.2400   1.2622   1.5581   1.6220   1.8340   5.0612   5.3420
     5.3888   5.5089   5.6902   5.7035   5.8098   5.8411   5.8692   6.0347
     6.0675   6.1211   6.2303   6.2966   6.4988   6.5856   6.6568   6.7440
     6.7766   6.8303   7.0010   7.0659   7.1717   7.2303   7.2755   7.4045
     7.4753   7.5292   7.6498   7.7347   7.7871   7.8154   7.9104   7.9497
     8.0776   8.1638   8.2077   8.2901   8.3542   8.3859   8.4896   8.5247
     8.5761   8.6471   8.7212   8.7830   8.9527   9.0838   9.1031   9.1433
     9.2006   9.2406   9.2745   9.3876   9.4300   9.5115   9.5699   9.8791
    10.0674  10.1962  10.3803  10.4093  10.4627  10.6252  10.9031  10.9464
    11.0529  11.0909  11.5616  12.0933  12.1638  12.2805  12.3384  12.3800
    12.4444  12.4958  12.6756  12.7575  13.3645  13.4458  13.6238  13.8026
    13.8853  14.3886  14.5979  15.1365  15.1802  15.3696  15.4491  15.4813
    15.5278  15.5682  15.6483  16.6468  16.6919  16.7719  16.8421  16.9317
    16.9954  17.0650  17.1224  17.1998  20.0272  20.1981  20.4731  20.9832
    21.1177  21.2056  21.6948  21.8414  21.9749  22.2843  22.3249  22.3433
    22.4639  22.5068  22.8303  22.8891  23.1102  23.1770  23.2352  23.2910

     occupation numbers 
     1.0000   1.0000   1.0000   1.0000   1.0000   1.0000   1.0000   1.0000
     1.0000   1.0000   1.0000   1.0000   1.0000   1.0000   1.0000   1.0000
     1.0000   1.0000   1.0000   1.0000   1.0000   1.0000   1.0000   1.0000
     1.0000   1.0000   1.0000   1.0000   1.0000   1.0000   1.0000   1.0000
     1.0000   1.0000   1.0000   1.0000   1.0000   1.0000   1.0000   1.0000
     1.0000   1.0000   1.0000   1.0000   1.0000   1.0000   1.0000   1.0000
     1.0000   1.0000   1.0000   1.0000   1.0000   1.0000   1.0000   1.0000
     1.0000   1.0000   1.0000   1.0000   1.0000   1.0000   1.0000   1.0000
     1.0000   1.0000   1.0000   1.0000   1.0000   1.0000   1.0000   1.0000
     1.0000   1.0000   1.0000   1.0000   1.0000   1.0000   1.0000   1.0000
     1.0000   1.0000   1.0000   1.0000   1.0000   1.0000   1.0000   1.0000
     1.0000   1.0000   1.0000   1.0000   1.0000   1.0000   1.0000   1.0000
     1.0000   1.0000   1.0000   1.0000   1.0000   1.0000   1.0000   1.0000
     1.0000   1.0000   1.0000   1.0000   1.0000   1.0000   1.0000   1.0000
     1.0000   1.0000   1.0000   1.0000   1.0000   1.0000   1.0000   1.0000
     1.0000   1.0000   1.0000   1.0000   1.0000   1.0000   1.0000   1.0000
     1.0000   1.0000   1.0000   1.0000   1.0000   1.0000   1.0000   1.0000
     1.0000   1.0000   1.0000   1.0000   1.0000   1.0000   1.0000   1.0000
     1.0000   1.0000   0.9987   0.0061   0.0006   0.0000   0.0000   0.0000
     0.0000   0.0000   0.0000   0.0000   0.0000   0.0000   0.0000   0.0000
     0.0000   0.0000   0.0000   0.0000   0.0000   0.0000   0.0000   0.0000
     0.0000   0.0000   0.0000   0.0000   0.0000   0.0000   0.0000   0.0000
     0.0000   0.0000   0.0000   0.0000   0.0000   0.0000   0.0000   0.0000
     0.0000   0.0000   0.0000   0.0000   0.0000   0.0000   0.0000   0.0000
     0.0000   0.0000   0.0000   0.0000   0.0000   0.0000   0.0000   0.0000

     the Fermi energy is    11.8519 ev

!    total energy              =   -3195.11241768 Ry
     estimated scf accuracy    <       0.00031057 Ry
     smearing contrib. (-TS)   =      -0.00046043 Ry
     internal energy E=F+TS    =   -3195.11195725 Ry

     The total energy is F=E-TS. E is the sum of the following terms:
     one-electron contribution =   -1315.59226642 Ry
     hartree contribution      =     843.34776008 Ry
     xc contribution           =    -695.21832175 Ry
     ewald contribution        =   -2027.64912917 Ry

     total magnetization       =     0.00 Bohr mag/cell
     absolute magnetization    =    27.56 Bohr mag/cell

     convergence has been achieved in  13 iterations

     Writing output data file /home/aldair1809/Documentos/QE/4BFO/UHUBBARD/temp/ecut_ecutwfc_55.in/bifeo3-scf.save/

     init_run     :     30.74s CPU     31.55s WALL (       1 calls)
     electrons    :   1605.65s CPU   1628.77s WALL (       1 calls)

     Called by init_run:
     wfcinit      :     27.34s CPU     27.75s WALL (       1 calls)
     wfcinit:atom :      0.03s CPU      0.08s WALL (       4 calls)
     wfcinit:wfcr :     27.00s CPU     27.24s WALL (       4 calls)
     potinit      :      0.77s CPU      0.81s WALL (       1 calls)
     hinit0       :      1.48s CPU      1.50s WALL (       1 calls)

     Called by electrons:
     c_bands      :   1456.79s CPU   1469.24s WALL (      13 calls)
     sum_band     :    129.97s CPU    136.12s WALL (      13 calls)
     v_of_rho     :      2.63s CPU      2.75s WALL (      14 calls)
     v_h          :      0.10s CPU      0.10s WALL (      14 calls)
     v_xc         :      2.54s CPU      2.64s WALL (      14 calls)
     newd         :     16.72s CPU     21.46s WALL (      14 calls)
     mix_rho      :      0.70s CPU      0.72s WALL (      13 calls)

     Called by c_bands:
     init_us_2    :      2.45s CPU      2.48s WALL (     108 calls)
     ccgdiagg     :   1112.08s CPU   1122.16s WALL (      52 calls)
     wfcrot       :    369.74s CPU    372.34s WALL (      52 calls)

     Called by sum_band:
     sum_band:wei :      0.01s CPU      0.01s WALL (      13 calls)
     sum_band:loo :    105.23s CPU    106.41s WALL (      13 calls)
     sum_band:buf :      0.42s CPU      0.42s WALL (      52 calls)
     sum_band:ini :      1.20s CPU      1.20s WALL (      52 calls)
     sum_band:cal :     72.25s CPU     72.32s WALL (      52 calls)
     sum_band:bec :      0.26s CPU      0.26s WALL (      52 calls)
     addusdens    :     23.77s CPU     28.62s WALL (      13 calls)
     addusd:skk   :      0.08s CPU      0.09s WALL (      52 calls)
     addusd:dgemm :     12.16s CPU     16.09s WALL (     104 calls)
     addusd:qvan2 :     11.27s CPU     11.29s WALL (     104 calls)

     Called by *cgdiagg:
     h_psi        :    678.85s CPU    688.91s WALL (   23837 calls)
     s_psi        :    411.19s CPU    412.12s WALL (   47622 calls)

     Called by h_psi:
     h_psi:calbec :    243.37s CPU    245.45s WALL (   23837 calls)
     vloc_psi     :    191.27s CPU    198.85s WALL (   23837 calls)
     add_vuspsi   :    243.08s CPU    243.52s WALL (   23837 calls)
     hs_1psi      :    643.25s CPU    651.28s WALL (   23785 calls)
     s_1psi       :    338.05s CPU    339.45s WALL (   23785 calls)

     General routines
     calbec       :    484.89s CPU    488.16s WALL (   47674 calls)
     fft          :      1.37s CPU      1.48s WALL (     292 calls)
     ffts         :      0.14s CPU      0.15s WALL (      26 calls)
     fftw         :    186.04s CPU    193.98s WALL (   78802 calls)

     Parallel routines
     fft_scatt_xy :     43.81s CPU     45.43s WALL (   79120 calls)
     fft_scatt_yz :     28.13s CPU     31.54s WALL (   79120 calls)

     PWSCF        :  27m16.96s CPU  27m41.35s WALL


   This run was terminated on:  14:33:47  29Sep2024            

=------------------------------------------------------------------------------=
   JOB DONE.
=------------------------------------------------------------------------------=
