
     Program PWSCF v.6.7MaX starts on 29Sep2024 at 12:20: 7 

     This program is part of the open-source Quantum ESPRESSO suite
     for quantum simulation of materials; please cite
         "P. Giannozzi et al., J. Phys.:Condens. Matter 21 395502 (2009);
         "P. Giannozzi et al., J. Phys.:Condens. Matter 29 465901 (2017);
          URL http://www.quantum-espresso.org", 
     in publications or presentations arising from this work. More details at
     http://www.quantum-espresso.org/quote

     Parallel version (MPI), running on     4 processors

     MPI processes distributed on     1 nodes
     R & G space division:  proc/nbgrp/npool/nimage =       4
     Waiting for input...
     Reading input from standard input

     Current dimensions of program PWSCF are:
     Max number of different atomic species (ntypx) = 10
     Max number of k-points (npk) =  40000
     Max angular momentum in pseudopotentials (lmaxx) =  3
     Message from routine iosys:
     wrong startingpot: use default (1)

     Subspace diagonalization in iterative solution of the eigenvalue problem:
     one sub-group per band group will be used
     scalapack distributed-memory algorithm (size of sub-group:  2*  2 procs)

     Message from routine setup:
     using ibrav=0 with symmetry is DISCOURAGED, use correct ibrav instead

     Parallelization info
     --------------------
     sticks:   dense  smooth     PW     G-vecs:    dense   smooth      PW
     Min         191     191     52                10703    10703    1626
     Max         193     193     53                10706    10706    1637
     Sum         769     769    211                42815    42815    6531



     bravais-lattice index     =            0
     lattice parameter (alat)  =      10.5468  a.u.
     unit-cell volume          =    2535.5110 (a.u.)^3
     number of atoms/cell      =           30
     number of atomic types    =            4
     number of electrons       =       294.00
     number of Kohn-Sham states=          200
     kinetic-energy cutoff     =      25.0000  Ry
     charge density cutoff     =     100.0000  Ry
     scf convergence threshold =      1.0E-03
     mixing beta               =       0.2000
     number of iterations used =            8  plain     mixing
     Exchange-correlation=  SLA  PW   PBX  PBC
                           (   1   4   3   4   0   0   0)

     celldm(1)=  10.546849  celldm(2)=   0.000000  celldm(3)=   0.000000
     celldm(4)=   0.000000  celldm(5)=   0.000000  celldm(6)=   0.000000

     crystal axes: (cart. coord. in units of alat)
               a(1) = (   1.000000  -0.000000  -0.000000 )  
               a(2) = (  -0.500000   0.866025  -0.000000 )  
               a(3) = (   0.000000  -0.000000   2.495552 )  

     reciprocal axes: (cart. coord. in units 2 pi/alat)
               b(1) = (  1.000000  0.577350  0.000000 )  
               b(2) = (  0.000000  1.154701  0.000000 )  
               b(3) = (  0.000000  0.000000  0.400713 )  


     PseudoPot. # 1 for O  read from file:
     /home/aldair1809/Programas/QE/q-e-qe-7.3/pseudo/o_pbe_v1.2.uspp.F.UPF
     MD5 check sum: 734c27235a0248c51dbae37a1fbe46ec
     Pseudo is Ultrasoft + core correction, Zval =  6.0
     Generated by new atomic code, or converted to UPF format
     Using radial grid of  737 points,  5 beta functions with: 
                l(1) =   0
                l(2) =   0
                l(3) =   1
                l(4) =   1
                l(5) =   2
     Q(r) pseudized with  8 coefficients,  rinner =    0.900   0.900   0.900
                                                       0.900   0.900

     PseudoPot. # 2 for Bi read from file:
     /home/aldair1809/Programas/QE/q-e-qe-7.3/pseudo/bi_pbe_v1.uspp.F.UPF
     MD5 check sum: cceb9f28ec65b6d7ff33140f5b0b1758
     Pseudo is Ultrasoft + core correction, Zval = 15.0
     Generated by new atomic code, or converted to UPF format
     Using radial grid of  899 points,  6 beta functions with: 
                l(1) =   0
                l(2) =   0
                l(3) =   1
                l(4) =   1
                l(5) =   2
                l(6) =   2
     Q(r) pseudized with  6 coefficients,  rinner =    1.000   1.000   1.000
                                                       1.000   1.000

     PseudoPot. # 3 for Fe read from file:
     /home/aldair1809/Programas/QE/q-e-qe-7.3/pseudo/fe_pbe_v1.5.uspp.F.UPF
     MD5 check sum: a130daea23fe5165f5d574ae7f82ed95
     Pseudo is Ultrasoft + core correction, Zval = 16.0
     Generated by new atomic code, or converted to UPF format
     Using radial grid of  861 points,  6 beta functions with: 
                l(1) =   0
                l(2) =   0
                l(3) =   1
                l(4) =   1
                l(5) =   2
                l(6) =   2
     Q(r) pseudized with  8 coefficients,  rinner =    1.000   1.000   1.000
                                                       1.000   1.000

     PseudoPot. # 4 for Fe read from file:
     /home/aldair1809/Programas/QE/q-e-qe-7.3/pseudo/fe_pbe_v1.5.uspp.F.UPF
     MD5 check sum: a130daea23fe5165f5d574ae7f82ed95
     Pseudo is Ultrasoft + core correction, Zval = 16.0
     Generated by new atomic code, or converted to UPF format
     Using radial grid of  861 points,  6 beta functions with: 
                l(1) =   0
                l(2) =   0
                l(3) =   1
                l(4) =   1
                l(5) =   2
                l(6) =   2
     Q(r) pseudized with  8 coefficients,  rinner =    1.000   1.000   1.000
                                                       1.000   1.000

     atomic species   valence    mass     pseudopotential
        O              6.00    15.99940     O ( 1.00)
        Bi            15.00   208.98040     Bi( 1.00)
        Fe1           16.00    55.84500     Fe( 1.00)
        Fe2           16.00    55.84500     Fe( 1.00)

     Starting magnetic structure 
     atomic species   magnetization
        O            0.000
        Bi           0.000
        Fe1         -0.800
        Fe2          0.800

      3 Sym. Ops. (no inversion) found


                                    s                        frac. trans.

      isym =  1     identity                                     

 cryst.   s( 1) = (     1          0          0      )
                  (     0          1          0      )
                  (     0          0          1      )

 cart.    s( 1) = (  1.0000000 -0.0000000  0.0000000 )
                  (  0.0000000  1.0000000  0.0000000 )
                  (  0.0000000  0.0000000  1.0000000 )


      isym =  2     120 deg rotation - cryst. axis [0,0,1]       

 cryst.   s( 2) = (     0          1          0      )
                  (    -1         -1          0      )
                  (     0          0          1      )

 cart.    s( 2) = ( -0.5000000 -0.8660254  0.0000000 )
                  (  0.8660254 -0.5000000  0.0000000 )
                  (  0.0000000  0.0000000  1.0000000 )


      isym =  3     120 deg rotation - cryst. axis [0,0,-1]      

 cryst.   s( 3) = (    -1         -1          0      )
                  (     1          0          0      )
                  (     0          0          1      )

 cart.    s( 3) = ( -0.5000000  0.8660254  0.0000000 )
                  ( -0.8660254 -0.5000000  0.0000000 )
                  (  0.0000000  0.0000000  1.0000000 )


   Cartesian axes

     site n.     atom                  positions (alat units)
         1           Fe1 tau(   1) = (   0.0000000   0.0000000   1.9384582  )
         2           Fe1 tau(   2) = (  -0.0000005   0.5773506   2.3615556  )
         3           Fe1 tau(   3) = (   0.5000005   0.2886748   1.5200787  )
         4           Fe2 tau(   4) = (   0.5000005   0.2886748   0.2722626  )
         5           Fe2 tau(   5) = (   0.0000000   0.0000000   0.6907071  )
         6           Fe2 tau(   6) = (  -0.0000005   0.5773506   1.1137452  )
         7           Bi  tau(   7) = (   0.5000005   0.2886748   2.0843143  )
         8           Bi  tau(   8) = (  -0.0000005   0.5773506   1.6713980  )
         9           Bi  tau(   9) = (  -0.0000005   0.5773506   0.4235448  )
        10           Bi  tau(  10) = (   0.0000000   0.0000000   0.0002821  )
        11           Bi  tau(  11) = (   0.0000000   0.0000000   1.2481025  )
        12           Bi  tau(  12) = (   0.5000005   0.2886748   0.8364865  )
        13           O   tau(  13) = (  -0.3105904   0.6551932   2.2011299  )
        14           O   tau(  14) = (   0.0878817   0.2694488   2.2011299  )
        15           O   tau(  15) = (   0.2227102   0.8074080   2.2011299  )
        16           O   tau(  16) = (   0.4087504   0.5589755   1.7846473  )
        17           O   tau(  17) = (   0.3115373   0.0745013   1.7846473  )
        18           O   tau(  18) = (   0.7797108   0.2325494   1.7846473  )
        19           O   tau(  19) = (   0.6884743   0.0745026   0.5368244  )
        20           O   tau(  20) = (   0.5912412   0.5589858   0.5368244  )
        21           O   tau(  21) = (   0.2202830   0.2325379   0.5368244  )
        22           O   tau(  22) = (  -0.0823010   0.8482993   0.1166193  )
        23           O   tau(  23) = (  -0.1934983   0.3706010   0.1166193  )
        24           O   tau(  24) = (   0.2757993   0.5131505   0.1166193  )
        25           O   tau(  25) = (   0.1934855   0.3705936   1.3644430  )
        26           O   tau(  26) = (   0.0823138   0.8482919   1.3644430  )
        27           O   tau(  27) = (  -0.2757993   0.5131653   1.3644430  )
        28           O   tau(  28) = (  -0.0878870   0.2694458   0.9533686  )
        29           O   tau(  29) = (   0.3105971   0.6551893   0.9533686  )
        30           O   tau(  30) = (  -0.2227086   0.8074149   0.9533686  )

   Crystallographic axes

     site n.     atom                  positions (cryst. coord.)
         1           Fe1 tau(   1) = (  0.0000000  0.0000000  0.7767652  )
         2           Fe1 tau(   2) = (  0.3333330  0.6666670  0.9463058  )
         3           Fe1 tau(   3) = (  0.6666670  0.3333330  0.6091152  )
         4           Fe2 tau(   4) = (  0.6666670  0.3333330  0.1090991  )
         5           Fe2 tau(   5) = (  0.0000000  0.0000000  0.2767753  )
         6           Fe2 tau(   6) = (  0.3333330  0.6666670  0.4462921  )
         7           Bi  tau(   7) = (  0.6666670  0.3333330  0.8352117  )
         8           Bi  tau(   8) = (  0.3333330  0.6666670  0.6697508  )
         9           Bi  tau(   9) = (  0.3333330  0.6666670  0.1697199  )
        10           Bi  tau(  10) = (  0.0000000  0.0000000  0.0001130  )
        11           Bi  tau(  11) = (  0.0000000  0.0000000  0.5001308  )
        12           Bi  tau(  12) = (  0.6666670  0.3333330  0.3351910  )
        13           O   tau(  13) = (  0.0676856  0.7565520  0.8820212  )
        14           O   tau(  14) = (  0.2434480  0.3111326  0.8820212  )
        15           O   tau(  15) = (  0.6888674  0.9323144  0.8820212  )
        16           O   tau(  16) = (  0.7314750  0.6454493  0.7151312  )
        17           O   tau(  17) = (  0.3545507  0.0860267  0.7151312  )
        18           O   tau(  18) = (  0.9139733  0.2685250  0.7151312  )
        19           O   tau(  19) = (  0.7314884  0.0860282  0.2151125  )
        20           O   tau(  20) = (  0.9139718  0.6454612  0.2151125  )
        21           O   tau(  21) = (  0.3545388  0.2685116  0.2151125  )
        22           O   tau(  22) = (  0.4074649  0.9795317  0.0467309  )
        23           O   tau(  23) = (  0.0204683  0.4279331  0.0467309  )
        24           O   tau(  24) = (  0.5720669  0.5925351  0.0467309  )
        25           O   tau(  25) = (  0.4074478  0.4279246  0.5467499  )
        26           O   tau(  26) = (  0.5720754  0.9795232  0.5467499  )
        27           O   tau(  27) = (  0.0204768  0.5925522  0.5467499  )
        28           O   tau(  28) = (  0.0676775  0.3111292  0.3820271  )
        29           O   tau(  29) = (  0.6888708  0.7565474  0.3820271  )
        30           O   tau(  30) = (  0.2434526  0.9323225  0.3820271  )

     number of k points=     2  Gaussian smearing, width (Ry)=  0.0100
                       cart. coord. in units 2pi/alat
        k(    1) = (   0.0000000   0.0000000   0.0000000), wk =   0.2500000
        k(    2) = (   0.0000000  -0.5773503   0.0000000), wk =   0.7500000

                       cryst. coord.
        k(    1) = (   0.0000000   0.0000000   0.0000000), wk =   0.2500000
        k(    2) = (   0.0000000  -0.5000000   0.0000000), wk =   0.7500000

     Dense  grid:    42815 G-vectors     FFT dimensions: (  36,  36,  90)

     Dynamical RAM for                 wfc:       4.08 MB

     Dynamical RAM for     wfc (w. buffer):      20.42 MB

     Dynamical RAM for           str. fact:       0.65 MB

     Dynamical RAM for           local pot:       0.00 MB

     Dynamical RAM for          nlocal pot:       9.19 MB

     Dynamical RAM for                qrad:       3.22 MB

     Dynamical RAM for          rho,v,vnew:       2.34 MB

     Dynamical RAM for               rhoin:       0.78 MB

     Dynamical RAM for            rho*nmix:       5.23 MB

     Dynamical RAM for           G-vectors:       0.69 MB

     Dynamical RAM for          h,s,v(r/c):       0.46 MB

     Dynamical RAM for          <psi|beta>:       1.37 MB

     Dynamical RAM for      wfcinit/wfcrot:       9.28 MB

     Dynamical RAM for           addusdens:      33.48 MB

     Estimated static dynamical RAM per process >      44.70 MB

     Estimated max dynamical RAM per process >      78.18 MB

     Estimated total dynamical RAM >     312.72 MB

     Check: negative core charge=   -0.000640
     Generating pointlists ...
     new r_m :   0.1458 (alat units)  1.5374 (a.u.) for type    1
     new r_m :   0.1687 (alat units)  1.7788 (a.u.) for type    2
     new r_m :   0.1458 (alat units)  1.5374 (a.u.) for type    3
     new r_m :   0.1458 (alat units)  1.5374 (a.u.) for type    4

     Initial potential from superposition of free atoms

     starting charge  281.99969, renormalised to  294.00000

     negative rho (up, down):  1.188E-01 1.188E-01
     Starting wfcs are  204 randomized atomic wfcs

     total cpu time spent up to now is       11.8 secs

     Self-consistent Calculation

     iteration #  1     ecut=    25.00 Ry     beta= 0.20
     CG style diagonalization
     ethr =  1.00E-02,  avg # of iterations =  2.7

     negative rho (up, down):  1.151E-01 1.151E-01

     total cpu time spent up to now is       52.9 secs

     total energy              =   -3187.39358986 Ry
     estimated scf accuracy    <      22.94495521 Ry

     total magnetization       =     0.00 Bohr mag/cell
     absolute magnetization    =    30.62 Bohr mag/cell

     iteration #  2     ecut=    25.00 Ry     beta= 0.20
     CG style diagonalization
     ethr =  7.80E-03,  avg # of iterations =  3.0

     negative rho (up, down):  1.112E-01 1.112E-01

     total cpu time spent up to now is       93.8 secs

     total energy              =   -3190.13540355 Ry
     estimated scf accuracy    <       9.85809999 Ry

     total magnetization       =    -0.00 Bohr mag/cell
     absolute magnetization    =    29.92 Bohr mag/cell

     iteration #  3     ecut=    25.00 Ry     beta= 0.20
     CG style diagonalization
     ethr =  3.35E-03,  avg # of iterations =  3.2

     negative rho (up, down):  1.114E-01 1.115E-01

     total cpu time spent up to now is      137.4 secs

     total energy              =   -3191.34785680 Ry
     estimated scf accuracy    <       5.27248325 Ry

     total magnetization       =     0.00 Bohr mag/cell
     absolute magnetization    =    27.81 Bohr mag/cell

     iteration #  4     ecut=    25.00 Ry     beta= 0.20
     CG style diagonalization
     ethr =  1.79E-03,  avg # of iterations =  3.0

     negative rho (up, down):  1.106E-01 1.106E-01

     total cpu time spent up to now is      179.5 secs

     total energy              =   -3192.42351089 Ry
     estimated scf accuracy    <       3.98101948 Ry

     total magnetization       =     0.00 Bohr mag/cell
     absolute magnetization    =    28.12 Bohr mag/cell

     iteration #  5     ecut=    25.00 Ry     beta= 0.20
     CG style diagonalization
     ethr =  1.35E-03,  avg # of iterations =  3.4

     negative rho (up, down):  1.103E-01 1.103E-01

     total cpu time spent up to now is      226.4 secs

     total energy              =   -3193.02529190 Ry
     estimated scf accuracy    <       3.56486711 Ry

     total magnetization       =    -0.00 Bohr mag/cell
     absolute magnetization    =    28.85 Bohr mag/cell

     iteration #  6     ecut=    25.00 Ry     beta= 0.20
     CG style diagonalization
     ethr =  1.21E-03,  avg # of iterations =  3.0

     negative rho (up, down):  1.104E-01 1.104E-01

     total cpu time spent up to now is      267.7 secs

     total energy              =   -3192.95178219 Ry
     estimated scf accuracy    <       0.82983798 Ry

     total magnetization       =    -0.00 Bohr mag/cell
     absolute magnetization    =    28.41 Bohr mag/cell

     iteration #  7     ecut=    25.00 Ry     beta= 0.20
     CG style diagonalization
     ethr =  2.82E-04,  avg # of iterations =  3.3

     negative rho (up, down):  1.108E-01 1.108E-01

     total cpu time spent up to now is      321.4 secs

     total energy              =   -3193.08352934 Ry
     estimated scf accuracy    <       0.07905332 Ry

     total magnetization       =     0.00 Bohr mag/cell
     absolute magnetization    =    27.65 Bohr mag/cell

     iteration #  8     ecut=    25.00 Ry     beta= 0.20
     CG style diagonalization
     c_bands:  1 eigenvalues not converged
     c_bands:  2 eigenvalues not converged
     c_bands:  1 eigenvalues not converged
     c_bands:  1 eigenvalues not converged
     ethr =  2.69E-05,  avg # of iterations =  3.6

     negative rho (up, down):  1.110E-01 1.110E-01

     total cpu time spent up to now is      385.5 secs

     total energy              =   -3193.10362027 Ry
     estimated scf accuracy    <       0.09532312 Ry

     total magnetization       =     0.00 Bohr mag/cell
     absolute magnetization    =    27.32 Bohr mag/cell

     iteration #  9     ecut=    25.00 Ry     beta= 0.20
     CG style diagonalization
     ethr =  2.69E-05,  avg # of iterations =  3.0

     negative rho (up, down):  1.111E-01 1.111E-01

     total cpu time spent up to now is      437.9 secs

     total energy              =   -3193.10267847 Ry
     estimated scf accuracy    <       0.15910970 Ry

     total magnetization       =     0.00 Bohr mag/cell
     absolute magnetization    =    27.13 Bohr mag/cell

     iteration # 10     ecut=    25.00 Ry     beta= 0.20
     CG style diagonalization
     ethr =  2.69E-05,  avg # of iterations =  3.0

     negative rho (up, down):  1.116E-01 1.116E-01

     total cpu time spent up to now is      490.4 secs

     total energy              =   -3193.06031011 Ry
     estimated scf accuracy    <       0.12936612 Ry

     total magnetization       =     0.00 Bohr mag/cell
     absolute magnetization    =    27.16 Bohr mag/cell

     iteration # 11     ecut=    25.00 Ry     beta= 0.20
     CG style diagonalization
     c_bands:  1 eigenvalues not converged
     ethr =  2.69E-05,  avg # of iterations =  3.3

     negative rho (up, down):  1.116E-01 1.116E-01

     total cpu time spent up to now is      549.1 secs

     total energy              =   -3193.08578879 Ry
     estimated scf accuracy    <       0.02861025 Ry

     total magnetization       =    -0.00 Bohr mag/cell
     absolute magnetization    =    27.74 Bohr mag/cell

     iteration # 12     ecut=    25.00 Ry     beta= 0.20
     CG style diagonalization
     c_bands:  1 eigenvalues not converged
     c_bands:  1 eigenvalues not converged
     c_bands:  1 eigenvalues not converged
     ethr =  9.73E-06,  avg # of iterations =  3.1

     negative rho (up, down):  1.116E-01 1.116E-01

     total cpu time spent up to now is      599.3 secs

     total energy              =   -3193.08608963 Ry
     estimated scf accuracy    <       0.00449818 Ry

     total magnetization       =     0.00 Bohr mag/cell
     absolute magnetization    =    27.65 Bohr mag/cell

     iteration # 13     ecut=    25.00 Ry     beta= 0.20
     CG style diagonalization
     c_bands:  2 eigenvalues not converged
     c_bands:  3 eigenvalues not converged
     ethr =  1.53E-06,  avg # of iterations =  3.5

     negative rho (up, down):  1.116E-01 1.116E-01

     total cpu time spent up to now is      647.5 secs

     total energy              =   -3193.08724218 Ry
     estimated scf accuracy    <       0.00153133 Ry

     total magnetization       =     0.00 Bohr mag/cell
     absolute magnetization    =    27.56 Bohr mag/cell

     iteration # 14     ecut=    25.00 Ry     beta= 0.20
     CG style diagonalization
     c_bands:  1 eigenvalues not converged
     c_bands:  1 eigenvalues not converged
     ethr =  5.21E-07,  avg # of iterations =  3.1

     negative rho (up, down):  1.117E-01 1.117E-01

     Magnetic moment per site:
     atom:    1    charge:   13.0478    magn:   -3.7160    constr:    0.0000
     atom:    2    charge:   13.0556    magn:   -3.6008    constr:    0.0000
     atom:    3    charge:   13.0676    magn:   -3.5942    constr:    0.0000
     atom:    4    charge:   13.0651    magn:    3.5955    constr:    0.0000
     atom:    5    charge:   13.0465    magn:    3.7167    constr:    0.0000
     atom:    6    charge:   13.0531    magn:    3.6020    constr:    0.0000
     atom:    7    charge:   10.4877    magn:   -0.0161    constr:    0.0000
     atom:    8    charge:   10.4871    magn:   -0.0128    constr:    0.0000
     atom:    9    charge:   10.4871    magn:    0.0128    constr:    0.0000
     atom:   10    charge:   10.4894    magn:   -0.0045    constr:    0.0000
     atom:   11    charge:   10.4894    magn:    0.0045    constr:    0.0000
     atom:   12    charge:   10.4877    magn:    0.0161    constr:    0.0000
     atom:   13    charge:    5.3964    magn:   -0.2162    constr:    0.0000
     atom:   14    charge:    5.3964    magn:   -0.2162    constr:    0.0000
     atom:   15    charge:    5.3964    magn:   -0.2162    constr:    0.0000
     atom:   16    charge:    5.3934    magn:   -0.2280    constr:    0.0000
     atom:   17    charge:    5.3934    magn:   -0.2280    constr:    0.0000
     atom:   18    charge:    5.3934    magn:   -0.2280    constr:    0.0000
     atom:   19    charge:    5.3931    magn:    0.2278    constr:    0.0000
     atom:   20    charge:    5.3931    magn:    0.2278    constr:    0.0000
     atom:   21    charge:    5.3931    magn:    0.2278    constr:    0.0000
     atom:   22    charge:    5.3863    magn:    0.0672    constr:    0.0000
     atom:   23    charge:    5.3863    magn:    0.0672    constr:    0.0000
     atom:   24    charge:    5.3863    magn:    0.0672    constr:    0.0000
     atom:   25    charge:    5.3861    magn:   -0.0679    constr:    0.0000
     atom:   26    charge:    5.3861    magn:   -0.0679    constr:    0.0000
     atom:   27    charge:    5.3861    magn:   -0.0679    constr:    0.0000
     atom:   28    charge:    5.3963    magn:    0.2160    constr:    0.0000
     atom:   29    charge:    5.3963    magn:    0.2160    constr:    0.0000
     atom:   30    charge:    5.3963    magn:    0.2160    constr:    0.0000

     total cpu time spent up to now is      689.9 secs

     End of self-consistent calculation

 ------ SPIN UP ------------


          k = 0.0000 0.0000 0.0000 (  5411 PWs)   bands (ev):

   -79.6898 -79.4826 -79.3883 -74.6995 -74.6484 -74.5608 -45.5435 -45.4853
   -45.4852 -45.3069 -45.3069 -45.2889 -45.2888 -45.1726 -45.1726 -40.7060
   -40.6572 -40.6572 -40.6467 -40.6064 -40.6064 -40.5715 -40.5224 -40.5224
   -11.2486 -11.2486 -11.2129 -11.2129 -11.1909 -11.1909 -11.1608 -11.1483
   -11.1371 -11.1371 -11.1320 -11.1320 -11.1235 -11.1235 -11.1012 -11.0863
   -11.0772 -11.0772 -11.0675 -11.0675 -11.0661 -11.0661 -11.0561 -11.0526
   -11.0526 -11.0443 -11.0270 -11.0270 -11.0150 -11.0150  -7.9826  -7.6061
    -7.5093  -6.7544  -6.7016  -6.3071  -6.3070  -6.1815  -6.1811  -6.1810
    -6.0834  -6.0834  -5.9856  -5.9855  -5.8275  -5.8275  -5.6572  -5.6571
     0.8237   1.0610   1.1375   1.9080   2.0436   2.7933   4.9465   4.9465
     5.0640   5.4387   5.4387   5.5434   5.5435   5.5435   5.7295   5.7373
     5.7373   5.9499   6.0103   6.0103   6.2048   6.2049   6.2667   6.4265
     6.4266   6.4277   6.5200   6.7355   6.7355   7.0168   7.0168   7.1750
     7.3325   7.6103   7.6104   7.7222   7.8510   7.8511   7.9592   7.9592
     8.1558   8.2838   8.3431   8.3431   8.5059   8.5059   8.5212   8.6460
     8.6655   8.6656   8.8210   8.8210   8.9742   8.9742   9.3190   9.3191
     9.3695   9.3699   9.3700   9.4268   9.4269   9.7722   9.7723  10.0949
    10.1859  10.1859  10.2586  10.4317  10.5282  10.6631  10.7351  10.8842
    10.8842  11.5230  11.5230  12.0410  12.0410  12.2726  12.2751  12.2751
    12.3454  12.3677  12.4259  12.4259  13.2007  13.2007  13.8310  13.8310
    14.3769  14.3769  15.0662  15.1821  15.2855  15.3331  16.3814  16.3814
    16.5173  16.5174  16.5587  16.5588  16.8553  16.9138  17.1049  17.1050
    17.1861  17.1862  17.5959  17.5959  18.2976  19.5997  19.8207  19.9914
    20.6960  20.6960  20.9771  21.0593  21.6988  21.6989  21.8076  21.8077
    22.1311  22.1313  22.8628  23.0348  23.0550  23.0554  23.2057  23.7317

     occupation numbers 
     1.0000   1.0000   1.0000   1.0000   1.0000   1.0000   1.0000   1.0000
     1.0000   1.0000   1.0000   1.0000   1.0000   1.0000   1.0000   1.0000
     1.0000   1.0000   1.0000   1.0000   1.0000   1.0000   1.0000   1.0000
     1.0000   1.0000   1.0000   1.0000   1.0000   1.0000   1.0000   1.0000
     1.0000   1.0000   1.0000   1.0000   1.0000   1.0000   1.0000   1.0000
     1.0000   1.0000   1.0000   1.0000   1.0000   1.0000   1.0000   1.0000
     1.0000   1.0000   1.0000   1.0000   1.0000   1.0000   1.0000   1.0000
     1.0000   1.0000   1.0000   1.0000   1.0000   1.0000   1.0000   1.0000
     1.0000   1.0000   1.0000   1.0000   1.0000   1.0000   1.0000   1.0000
     1.0000   1.0000   1.0000   1.0000   1.0000   1.0000   1.0000   1.0000
     1.0000   1.0000   1.0000   1.0000   1.0000   1.0000   1.0000   1.0000
     1.0000   1.0000   1.0000   1.0000   1.0000   1.0000   1.0000   1.0000
     1.0000   1.0000   1.0000   1.0000   1.0000   1.0000   1.0000   1.0000
     1.0000   1.0000   1.0000   1.0000   1.0000   1.0000   1.0000   1.0000
     1.0000   1.0000   1.0000   1.0000   1.0000   1.0000   1.0000   1.0000
     1.0000   1.0000   1.0000   1.0000   1.0000   1.0000   1.0000   1.0000
     1.0000   1.0000   1.0000   1.0000   1.0000   1.0000   1.0000   1.0000
     1.0000   1.0000   1.0000   1.0000   1.0000   1.0000   1.0000   1.0000
     1.0000   0.9946   0.9946   0.0023   0.0023   0.0000   0.0000   0.0000
     0.0000   0.0000   0.0000   0.0000   0.0000   0.0000   0.0000   0.0000
     0.0000   0.0000   0.0000   0.0000   0.0000   0.0000   0.0000   0.0000
     0.0000   0.0000   0.0000   0.0000   0.0000   0.0000   0.0000   0.0000
     0.0000   0.0000   0.0000   0.0000   0.0000   0.0000   0.0000   0.0000
     0.0000   0.0000   0.0000   0.0000   0.0000   0.0000   0.0000   0.0000
     0.0000   0.0000   0.0000   0.0000   0.0000   0.0000   0.0000   0.0000

          k = 0.0000-0.5774 0.0000 (  5314 PWs)   bands (ev):

   -79.6863 -79.4792 -79.3850 -74.6965 -74.6455 -74.5578 -45.5249 -45.4713
   -45.4697 -45.2931 -45.2909 -45.2739 -45.2669 -45.1589 -45.1570 -40.6884
   -40.6443 -40.6441 -40.6285 -40.5938 -40.5915 -40.5541 -40.5097 -40.5079
   -11.2421 -11.2136 -11.1957 -11.1903 -11.1845 -11.1766 -11.1670 -11.1538
   -11.1373 -11.1338 -11.1237 -11.1196 -11.1132 -11.1104 -11.1043 -11.0965
   -11.0851 -11.0818 -11.0763 -11.0721 -11.0701 -11.0675 -11.0639 -11.0538
   -11.0526 -11.0411 -11.0398 -11.0312 -11.0283 -11.0168  -7.3376  -7.2959
    -7.1246  -6.9616  -6.9171  -6.5535  -6.5301  -6.4360  -6.2977  -6.2137
    -6.1826  -6.1548  -6.0870  -6.0170  -5.9030  -5.8587  -5.7662  -5.6763
     1.0047   1.2257   1.2462   1.5388   1.6015   1.8103   5.0594   5.3277
     5.3772   5.4634   5.6853   5.6891   5.8248   5.8461   5.8757   6.0296
     6.0654   6.1237   6.2188   6.2950   6.4963   6.5802   6.6391   6.7336
     6.7763   6.8326   6.9967   7.0578   7.1574   7.2205   7.2750   7.4139
     7.4726   7.5124   7.6474   7.7411   7.7877   7.8167   7.9104   7.9670
     8.0721   8.1612   8.2153   8.2747   8.3612   8.3674   8.4905   8.5258
     8.5821   8.6425   8.7186   8.7785   8.9582   9.1002   9.1103   9.1476
     9.2040   9.2575   9.2860   9.3874   9.4416   9.5168   9.5844   9.8338
    10.0530  10.1877  10.3505  10.3777  10.4453  10.5933  10.8656  10.9107
    11.0166  11.0257  11.4786  12.0303  12.1053  12.2270  12.2962  12.3503
    12.4019  12.4282  12.6170  12.7114  13.2755  13.3499  13.5385  13.6975
    13.7786  14.2955  14.5614  15.1199  15.1653  15.3596  15.4377  15.4738
    15.5161  15.5618  15.6406  16.6517  16.6964  16.7785  16.8493  16.9346
    17.0006  17.0724  17.1305  17.2086  20.0675  20.2344  20.5065  21.0092
    21.1486  21.2320  21.7138  21.8709  22.0016  22.3031  22.3473  22.3638
    22.4808  22.5258  22.8599  22.9172  23.1423  23.2038  23.2654  23.3224

     occupation numbers 
     1.0000   1.0000   1.0000   1.0000   1.0000   1.0000   1.0000   1.0000
     1.0000   1.0000   1.0000   1.0000   1.0000   1.0000   1.0000   1.0000
     1.0000   1.0000   1.0000   1.0000   1.0000   1.0000   1.0000   1.0000
     1.0000   1.0000   1.0000   1.0000   1.0000   1.0000   1.0000   1.0000
     1.0000   1.0000   1.0000   1.0000   1.0000   1.0000   1.0000   1.0000
     1.0000   1.0000   1.0000   1.0000   1.0000   1.0000   1.0000   1.0000
     1.0000   1.0000   1.0000   1.0000   1.0000   1.0000   1.0000   1.0000
     1.0000   1.0000   1.0000   1.0000   1.0000   1.0000   1.0000   1.0000
     1.0000   1.0000   1.0000   1.0000   1.0000   1.0000   1.0000   1.0000
     1.0000   1.0000   1.0000   1.0000   1.0000   1.0000   1.0000   1.0000
     1.0000   1.0000   1.0000   1.0000   1.0000   1.0000   1.0000   1.0000
     1.0000   1.0000   1.0000   1.0000   1.0000   1.0000   1.0000   1.0000
     1.0000   1.0000   1.0000   1.0000   1.0000   1.0000   1.0000   1.0000
     1.0000   1.0000   1.0000   1.0000   1.0000   1.0000   1.0000   1.0000
     1.0000   1.0000   1.0000   1.0000   1.0000   1.0000   1.0000   1.0000
     1.0000   1.0000   1.0000   1.0000   1.0000   1.0000   1.0000   1.0000
     1.0000   1.0000   1.0000   1.0000   1.0000   1.0000   1.0000   1.0000
     1.0000   1.0000   1.0000   1.0000   1.0000   1.0000   1.0000   1.0000
     1.0000   1.0000   0.9987   0.0032   0.0002   0.0000   0.0000   0.0000
     0.0000   0.0000   0.0000   0.0000   0.0000   0.0000   0.0000   0.0000
     0.0000   0.0000   0.0000   0.0000   0.0000   0.0000   0.0000   0.0000
     0.0000   0.0000   0.0000   0.0000   0.0000   0.0000   0.0000   0.0000
     0.0000   0.0000   0.0000   0.0000   0.0000   0.0000   0.0000   0.0000
     0.0000   0.0000   0.0000   0.0000   0.0000   0.0000   0.0000   0.0000
     0.0000   0.0000   0.0000   0.0000   0.0000   0.0000   0.0000   0.0000

 ------ SPIN DOWN ----------


          k = 0.0000 0.0000 0.0000 (  5411 PWs)   bands (ev):

   -79.6939 -79.4876 -79.3939 -74.6945 -74.6428 -74.5551 -45.5473 -45.4895
   -45.4895 -45.3117 -45.3116 -45.2941 -45.2939 -45.1780 -45.1780 -40.7012
   -40.6524 -40.6524 -40.6413 -40.6010 -40.6010 -40.5661 -40.5168 -40.5168
   -11.2493 -11.2493 -11.2127 -11.2127 -11.1907 -11.1907 -11.1629 -11.1464
   -11.1373 -11.1373 -11.1333 -11.1333 -11.1219 -11.1219 -11.1016 -11.0861
   -11.0774 -11.0774 -11.0683 -11.0683 -11.0662 -11.0662 -11.0578 -11.0516
   -11.0516 -11.0424 -11.0283 -11.0283 -11.0135 -11.0135  -7.9843  -7.6064
    -7.5083  -6.7549  -6.7016  -6.3096  -6.3095  -6.1821  -6.1821  -6.1801
    -6.0842  -6.0842  -5.9869  -5.9868  -5.8249  -5.8248  -5.6543  -5.6543
     0.8231   1.0615   1.1373   1.9081   2.0435   2.7935   4.9443   4.9443
     5.0622   5.4366   5.4366   5.5425   5.5428   5.5428   5.7297   5.7357
     5.7357   5.9480   6.0095   6.0095   6.2028   6.2029   6.2656   6.4264
     6.4265   6.4280   6.5216   6.7364   6.7364   7.0143   7.0144   7.1737
     7.3328   7.6114   7.6114   7.7205   7.8507   7.8507   7.9575   7.9575
     8.1549   8.2804   8.3417   8.3418   8.5050   8.5050   8.5204   8.6452
     8.6635   8.6635   8.8208   8.8208   8.9745   8.9746   9.3185   9.3186
     9.3688   9.3700   9.3701   9.4259   9.4260   9.7734   9.7734  10.0960
    10.1837  10.1837  10.2588  10.4340  10.5278  10.6621  10.7337  10.8820
    10.8820  11.5201  11.5202  12.0451  12.0451  12.2766  12.2797  12.2797
    12.3494  12.3723  12.4300  12.4300  13.2044  13.2044  13.8348  13.8348
    14.3807  14.3807  15.0654  15.1815  15.2858  15.3339  16.3805  16.3806
    16.5178  16.5179  16.5588  16.5588  16.8554  16.9137  17.1051  17.1051
    17.1858  17.1858  17.5966  17.5966  18.2965  19.5988  19.8198  19.9919
    20.6955  20.6956  20.9777  21.0601  21.6986  21.6988  21.8079  21.8082
    22.1310  22.1311  22.8612  23.0329  23.0544  23.0573  23.2049  23.2147

     occupation numbers 
     1.0000   1.0000   1.0000   1.0000   1.0000   1.0000   1.0000   1.0000
     1.0000   1.0000   1.0000   1.0000   1.0000   1.0000   1.0000   1.0000
     1.0000   1.0000   1.0000   1.0000   1.0000   1.0000   1.0000   1.0000
     1.0000   1.0000   1.0000   1.0000   1.0000   1.0000   1.0000   1.0000
     1.0000   1.0000   1.0000   1.0000   1.0000   1.0000   1.0000   1.0000
     1.0000   1.0000   1.0000   1.0000   1.0000   1.0000   1.0000   1.0000
     1.0000   1.0000   1.0000   1.0000   1.0000   1.0000   1.0000   1.0000
     1.0000   1.0000   1.0000   1.0000   1.0000   1.0000   1.0000   1.0000
     1.0000   1.0000   1.0000   1.0000   1.0000   1.0000   1.0000   1.0000
     1.0000   1.0000   1.0000   1.0000   1.0000   1.0000   1.0000   1.0000
     1.0000   1.0000   1.0000   1.0000   1.0000   1.0000   1.0000   1.0000
     1.0000   1.0000   1.0000   1.0000   1.0000   1.0000   1.0000   1.0000
     1.0000   1.0000   1.0000   1.0000   1.0000   1.0000   1.0000   1.0000
     1.0000   1.0000   1.0000   1.0000   1.0000   1.0000   1.0000   1.0000
     1.0000   1.0000   1.0000   1.0000   1.0000   1.0000   1.0000   1.0000
     1.0000   1.0000   1.0000   1.0000   1.0000   1.0000   1.0000   1.0000
     1.0000   1.0000   1.0000   1.0000   1.0000   1.0000   1.0000   1.0000
     1.0000   1.0000   1.0000   1.0000   1.0000   1.0000   1.0000   1.0000
     1.0000   0.9951   0.9951   0.0020   0.0020   0.0000   0.0000   0.0000
     0.0000   0.0000   0.0000   0.0000   0.0000   0.0000   0.0000   0.0000
     0.0000   0.0000   0.0000   0.0000   0.0000   0.0000   0.0000   0.0000
     0.0000   0.0000   0.0000   0.0000   0.0000   0.0000   0.0000   0.0000
     0.0000   0.0000   0.0000   0.0000   0.0000   0.0000   0.0000   0.0000
     0.0000   0.0000   0.0000   0.0000   0.0000   0.0000   0.0000   0.0000
     0.0000   0.0000   0.0000   0.0000   0.0000   0.0000   0.0000   0.0000

          k = 0.0000-0.5774 0.0000 (  5314 PWs)   bands (ev):

   -79.6905 -79.4842 -79.3905 -74.6916 -74.6399 -74.5521 -45.5287 -45.4756
   -45.4740 -45.2979 -45.2957 -45.2790 -45.2720 -45.1643 -45.1624 -40.6836
   -40.6394 -40.6392 -40.6231 -40.5884 -40.5861 -40.5487 -40.5041 -40.5024
   -11.2429 -11.2133 -11.1972 -11.1905 -11.1835 -11.1770 -11.1669 -11.1534
   -11.1376 -11.1329 -11.1252 -11.1209 -11.1120 -11.1103 -11.1045 -11.0949
   -11.0854 -11.0823 -11.0762 -11.0723 -11.0696 -11.0677 -11.0641 -11.0547
   -11.0529 -11.0422 -11.0387 -11.0305 -11.0280 -11.0152  -7.3404  -7.2971
    -7.1242  -6.9621  -6.9154  -6.5540  -6.5297  -6.4383  -6.2983  -6.2139
    -6.1845  -6.1549  -6.0877  -6.0183  -5.9011  -5.8566  -5.7638  -5.6735
     1.0038   1.2260   1.2462   1.5389   1.6009   1.8113   5.0565   5.3250
     5.3752   5.4601   5.6827   5.6888   5.8237   5.8468   5.8751   6.0285
     6.0643   6.1236   6.2167   6.2942   6.4953   6.5797   6.6374   6.7318
     6.7770   6.8328   6.9957   7.0570   7.1562   7.2194   7.2742   7.4139
     7.4711   7.5109   7.6471   7.7408   7.7870   7.8164   7.9110   7.9690
     8.0705   8.1607   8.2151   8.2732   8.3605   8.3659   8.4896   8.5247
     8.5819   8.6418   8.7172   8.7782   8.9579   9.1007   9.1093   9.1480
     9.2034   9.2584   9.2865   9.3874   9.4408   9.5163   9.5833   9.8319
    10.0544  10.1883  10.3487  10.3766  10.4443  10.5927  10.8636  10.9086
    11.0156  11.0232  11.4758  12.0347  12.1093  12.2311  12.3005  12.3545
    12.4061  12.4322  12.6209  12.7150  13.2794  13.3535  13.5419  13.7012
    13.7822  14.2991  14.5616  15.1195  15.1648  15.3599  15.4380  15.4733
    15.5162  15.5628  15.6411  16.6508  16.6967  16.7793  16.8492  16.9348
    16.9996  17.0713  17.1317  17.2101  20.0652  20.2327  20.5049  21.0103
    21.1504  21.2331  21.7134  21.8705  22.0014  22.3035  22.3462  22.3635
    22.4808  22.5271  22.8591  22.9172  23.1423  23.2044  23.2628  23.3204

     occupation numbers 
     1.0000   1.0000   1.0000   1.0000   1.0000   1.0000   1.0000   1.0000
     1.0000   1.0000   1.0000   1.0000   1.0000   1.0000   1.0000   1.0000
     1.0000   1.0000   1.0000   1.0000   1.0000   1.0000   1.0000   1.0000
     1.0000   1.0000   1.0000   1.0000   1.0000   1.0000   1.0000   1.0000
     1.0000   1.0000   1.0000   1.0000   1.0000   1.0000   1.0000   1.0000
     1.0000   1.0000   1.0000   1.0000   1.0000   1.0000   1.0000   1.0000
     1.0000   1.0000   1.0000   1.0000   1.0000   1.0000   1.0000   1.0000
     1.0000   1.0000   1.0000   1.0000   1.0000   1.0000   1.0000   1.0000
     1.0000   1.0000   1.0000   1.0000   1.0000   1.0000   1.0000   1.0000
     1.0000   1.0000   1.0000   1.0000   1.0000   1.0000   1.0000   1.0000
     1.0000   1.0000   1.0000   1.0000   1.0000   1.0000   1.0000   1.0000
     1.0000   1.0000   1.0000   1.0000   1.0000   1.0000   1.0000   1.0000
     1.0000   1.0000   1.0000   1.0000   1.0000   1.0000   1.0000   1.0000
     1.0000   1.0000   1.0000   1.0000   1.0000   1.0000   1.0000   1.0000
     1.0000   1.0000   1.0000   1.0000   1.0000   1.0000   1.0000   1.0000
     1.0000   1.0000   1.0000   1.0000   1.0000   1.0000   1.0000   1.0000
     1.0000   1.0000   1.0000   1.0000   1.0000   1.0000   1.0000   1.0000
     1.0000   1.0000   1.0000   1.0000   1.0000   1.0000   1.0000   1.0000
     1.0000   1.0000   0.9988   0.0028   0.0002   0.0000   0.0000   0.0000
     0.0000   0.0000   0.0000   0.0000   0.0000   0.0000   0.0000   0.0000
     0.0000   0.0000   0.0000   0.0000   0.0000   0.0000   0.0000   0.0000
     0.0000   0.0000   0.0000   0.0000   0.0000   0.0000   0.0000   0.0000
     0.0000   0.0000   0.0000   0.0000   0.0000   0.0000   0.0000   0.0000
     0.0000   0.0000   0.0000   0.0000   0.0000   0.0000   0.0000   0.0000
     0.0000   0.0000   0.0000   0.0000   0.0000   0.0000   0.0000   0.0000

     the Fermi energy is    11.7684 ev

!    total energy              =   -3193.08700718 Ry
     estimated scf accuracy    <       0.00051672 Ry
     smearing contrib. (-TS)   =      -0.00030309 Ry
     internal energy E=F+TS    =   -3193.08670409 Ry

     The total energy is F=E-TS. E is the sum of the following terms:
     one-electron contribution =   -1311.19072461 Ry
     hartree contribution      =     840.28906757 Ry
     xc contribution           =    -694.53591309 Ry
     ewald contribution        =   -2027.64913396 Ry

     total magnetization       =     0.00 Bohr mag/cell
     absolute magnetization    =    27.59 Bohr mag/cell

     convergence has been achieved in  14 iterations

     Writing output data file /home/aldair1809/Documentos/QE/4BFO/UHUBBARD/temp/ecut_ecutwfc_25.in/bifeo3-scf.save/

     init_run     :     11.29s CPU     11.48s WALL (       1 calls)
     electrons    :    669.39s CPU    678.12s WALL (       1 calls)

     Called by init_run:
     wfcinit      :      9.98s CPU     10.06s WALL (       1 calls)
     wfcinit:atom :      0.02s CPU      0.02s WALL (       4 calls)
     wfcinit:wfcr :      9.83s CPU      9.90s WALL (       4 calls)
     potinit      :      0.25s CPU      0.26s WALL (       1 calls)
     hinit0       :      0.62s CPU      0.62s WALL (       1 calls)

     Called by electrons:
     c_bands      :    613.51s CPU    621.47s WALL (      14 calls)
     sum_band     :     48.83s CPU     49.56s WALL (      14 calls)
     v_of_rho     :      1.05s CPU      1.08s WALL (      15 calls)
     v_h          :      0.02s CPU      0.03s WALL (      15 calls)
     v_xc         :      1.02s CPU      1.05s WALL (      15 calls)
     newd         :      6.20s CPU      6.29s WALL (      15 calls)
     mix_rho      :      0.19s CPU      0.19s WALL (      14 calls)

     Called by c_bands:
     init_us_2    :      0.76s CPU      0.77s WALL (     116 calls)
     ccgdiagg     :    473.63s CPU    480.38s WALL (      56 calls)
     wfcrot       :    149.03s CPU    150.31s WALL (      56 calls)

     Called by sum_band:
     sum_band:wei :      0.01s CPU      0.01s WALL (      14 calls)
     sum_band:loo :     40.50s CPU     41.18s WALL (      14 calls)
     sum_band:buf :      0.11s CPU      0.11s WALL (      56 calls)
     sum_band:ini :      0.36s CPU      0.37s WALL (      56 calls)
     sum_band:cal :     28.74s CPU     28.87s WALL (      56 calls)
     sum_band:bec :      0.31s CPU      0.31s WALL (      56 calls)
     addusdens    :      7.72s CPU      7.75s WALL (      14 calls)
     addusd:skk   :      0.03s CPU      0.04s WALL (      56 calls)
     addusd:dgemm :      3.60s CPU      3.63s WALL (     112 calls)
     addusd:qvan2 :      3.98s CPU      3.99s WALL (     112 calls)

     Called by *cgdiagg:
     h_psi        :    270.69s CPU    276.37s WALL (   25098 calls)
     s_psi        :    159.25s CPU    160.10s WALL (   50140 calls)

     Called by h_psi:
     h_psi:calbec :    103.23s CPU    105.04s WALL (   25098 calls)
     vloc_psi     :     72.98s CPU     76.54s WALL (   25098 calls)
     add_vuspsi   :     93.78s CPU     94.14s WALL (   25098 calls)
     hs_1psi      :    257.85s CPU    262.72s WALL (   25042 calls)
     s_1psi       :    138.57s CPU    139.93s WALL (   25042 calls)

     General routines
     calbec       :    204.78s CPU    207.85s WALL (   50196 calls)
     fft          :      0.47s CPU      0.49s WALL (     313 calls)
     ffts         :      0.05s CPU      0.05s WALL (      28 calls)
     fftw         :     76.52s CPU     80.37s WALL (   83716 calls)

     Parallel routines
     fft_scatt_xy :      6.75s CPU      7.14s WALL (   84057 calls)
     fft_scatt_yz :     21.12s CPU     22.49s WALL (   84057 calls)

     PWSCF        :  11m21.09s CPU  11m30.17s WALL


   This run was terminated on:  12:31:37  29Sep2024            

=------------------------------------------------------------------------------=
   JOB DONE.
=------------------------------------------------------------------------------=
