
     Program PWSCF v.6.7MaX starts on 29Sep2024 at 12:59:25 

     This program is part of the open-source Quantum ESPRESSO suite
     for quantum simulation of materials; please cite
         "P. Giannozzi et al., J. Phys.:Condens. Matter 21 395502 (2009);
         "P. Giannozzi et al., J. Phys.:Condens. Matter 29 465901 (2017);
          URL http://www.quantum-espresso.org", 
     in publications or presentations arising from this work. More details at
     http://www.quantum-espresso.org/quote

     Parallel version (MPI), running on     4 processors

     MPI processes distributed on     1 nodes
     R & G space division:  proc/nbgrp/npool/nimage =       4
     Waiting for input...
     Reading input from standard input

     Current dimensions of program PWSCF are:
     Max number of different atomic species (ntypx) = 10
     Max number of k-points (npk) =  40000
     Max angular momentum in pseudopotentials (lmaxx) =  3
     Message from routine iosys:
     wrong startingpot: use default (1)

     Subspace diagonalization in iterative solution of the eigenvalue problem:
     one sub-group per band group will be used
     scalapack distributed-memory algorithm (size of sub-group:  2*  2 procs)

     Message from routine setup:
     using ibrav=0 with symmetry is DISCOURAGED, use correct ibrav instead

     Parallelization info
     --------------------
     sticks:   dense  smooth     PW     G-vecs:    dense   smooth      PW
     Min         309     309     86                21647    21647    3165
     Max         310     310     88                21654    21654    3168
     Sum        1237    1237    349                86601    86601   12667



     bravais-lattice index     =            0
     lattice parameter (alat)  =      10.5468  a.u.
     unit-cell volume          =    2535.5110 (a.u.)^3
     number of atoms/cell      =           30
     number of atomic types    =            4
     number of electrons       =       294.00
     number of Kohn-Sham states=          200
     kinetic-energy cutoff     =      40.0000  Ry
     charge density cutoff     =     160.0000  Ry
     scf convergence threshold =      1.0E-03
     mixing beta               =       0.2000
     number of iterations used =            8  plain     mixing
     Exchange-correlation=  SLA  PW   PBX  PBC
                           (   1   4   3   4   0   0   0)

     celldm(1)=  10.546849  celldm(2)=   0.000000  celldm(3)=   0.000000
     celldm(4)=   0.000000  celldm(5)=   0.000000  celldm(6)=   0.000000

     crystal axes: (cart. coord. in units of alat)
               a(1) = (   1.000000  -0.000000  -0.000000 )  
               a(2) = (  -0.500000   0.866025  -0.000000 )  
               a(3) = (   0.000000  -0.000000   2.495552 )  

     reciprocal axes: (cart. coord. in units 2 pi/alat)
               b(1) = (  1.000000  0.577350  0.000000 )  
               b(2) = (  0.000000  1.154701  0.000000 )  
               b(3) = (  0.000000  0.000000  0.400713 )  


     PseudoPot. # 1 for O  read from file:
     /home/aldair1809/Programas/QE/q-e-qe-7.3/pseudo/o_pbe_v1.2.uspp.F.UPF
     MD5 check sum: 734c27235a0248c51dbae37a1fbe46ec
     Pseudo is Ultrasoft + core correction, Zval =  6.0
     Generated by new atomic code, or converted to UPF format
     Using radial grid of  737 points,  5 beta functions with: 
                l(1) =   0
                l(2) =   0
                l(3) =   1
                l(4) =   1
                l(5) =   2
     Q(r) pseudized with  8 coefficients,  rinner =    0.900   0.900   0.900
                                                       0.900   0.900

     PseudoPot. # 2 for Bi read from file:
     /home/aldair1809/Programas/QE/q-e-qe-7.3/pseudo/bi_pbe_v1.uspp.F.UPF
     MD5 check sum: cceb9f28ec65b6d7ff33140f5b0b1758
     Pseudo is Ultrasoft + core correction, Zval = 15.0
     Generated by new atomic code, or converted to UPF format
     Using radial grid of  899 points,  6 beta functions with: 
                l(1) =   0
                l(2) =   0
                l(3) =   1
                l(4) =   1
                l(5) =   2
                l(6) =   2
     Q(r) pseudized with  6 coefficients,  rinner =    1.000   1.000   1.000
                                                       1.000   1.000

     PseudoPot. # 3 for Fe read from file:
     /home/aldair1809/Programas/QE/q-e-qe-7.3/pseudo/fe_pbe_v1.5.uspp.F.UPF
     MD5 check sum: a130daea23fe5165f5d574ae7f82ed95
     Pseudo is Ultrasoft + core correction, Zval = 16.0
     Generated by new atomic code, or converted to UPF format
     Using radial grid of  861 points,  6 beta functions with: 
                l(1) =   0
                l(2) =   0
                l(3) =   1
                l(4) =   1
                l(5) =   2
                l(6) =   2
     Q(r) pseudized with  8 coefficients,  rinner =    1.000   1.000   1.000
                                                       1.000   1.000

     PseudoPot. # 4 for Fe read from file:
     /home/aldair1809/Programas/QE/q-e-qe-7.3/pseudo/fe_pbe_v1.5.uspp.F.UPF
     MD5 check sum: a130daea23fe5165f5d574ae7f82ed95
     Pseudo is Ultrasoft + core correction, Zval = 16.0
     Generated by new atomic code, or converted to UPF format
     Using radial grid of  861 points,  6 beta functions with: 
                l(1) =   0
                l(2) =   0
                l(3) =   1
                l(4) =   1
                l(5) =   2
                l(6) =   2
     Q(r) pseudized with  8 coefficients,  rinner =    1.000   1.000   1.000
                                                       1.000   1.000

     atomic species   valence    mass     pseudopotential
        O              6.00    15.99940     O ( 1.00)
        Bi            15.00   208.98040     Bi( 1.00)
        Fe1           16.00    55.84500     Fe( 1.00)
        Fe2           16.00    55.84500     Fe( 1.00)

     Starting magnetic structure 
     atomic species   magnetization
        O            0.000
        Bi           0.000
        Fe1         -0.800
        Fe2          0.800

      3 Sym. Ops. (no inversion) found


                                    s                        frac. trans.

      isym =  1     identity                                     

 cryst.   s( 1) = (     1          0          0      )
                  (     0          1          0      )
                  (     0          0          1      )

 cart.    s( 1) = (  1.0000000 -0.0000000  0.0000000 )
                  (  0.0000000  1.0000000  0.0000000 )
                  (  0.0000000  0.0000000  1.0000000 )


      isym =  2     120 deg rotation - cryst. axis [0,0,1]       

 cryst.   s( 2) = (     0          1          0      )
                  (    -1         -1          0      )
                  (     0          0          1      )

 cart.    s( 2) = ( -0.5000000 -0.8660254  0.0000000 )
                  (  0.8660254 -0.5000000  0.0000000 )
                  (  0.0000000  0.0000000  1.0000000 )


      isym =  3     120 deg rotation - cryst. axis [0,0,-1]      

 cryst.   s( 3) = (    -1         -1          0      )
                  (     1          0          0      )
                  (     0          0          1      )

 cart.    s( 3) = ( -0.5000000  0.8660254  0.0000000 )
                  ( -0.8660254 -0.5000000  0.0000000 )
                  (  0.0000000  0.0000000  1.0000000 )


   Cartesian axes

     site n.     atom                  positions (alat units)
         1           Fe1 tau(   1) = (   0.0000000   0.0000000   1.9384582  )
         2           Fe1 tau(   2) = (  -0.0000005   0.5773506   2.3615556  )
         3           Fe1 tau(   3) = (   0.5000005   0.2886748   1.5200787  )
         4           Fe2 tau(   4) = (   0.5000005   0.2886748   0.2722626  )
         5           Fe2 tau(   5) = (   0.0000000   0.0000000   0.6907071  )
         6           Fe2 tau(   6) = (  -0.0000005   0.5773506   1.1137452  )
         7           Bi  tau(   7) = (   0.5000005   0.2886748   2.0843143  )
         8           Bi  tau(   8) = (  -0.0000005   0.5773506   1.6713980  )
         9           Bi  tau(   9) = (  -0.0000005   0.5773506   0.4235448  )
        10           Bi  tau(  10) = (   0.0000000   0.0000000   0.0002821  )
        11           Bi  tau(  11) = (   0.0000000   0.0000000   1.2481025  )
        12           Bi  tau(  12) = (   0.5000005   0.2886748   0.8364865  )
        13           O   tau(  13) = (  -0.3105904   0.6551932   2.2011299  )
        14           O   tau(  14) = (   0.0878817   0.2694488   2.2011299  )
        15           O   tau(  15) = (   0.2227102   0.8074080   2.2011299  )
        16           O   tau(  16) = (   0.4087504   0.5589755   1.7846473  )
        17           O   tau(  17) = (   0.3115373   0.0745013   1.7846473  )
        18           O   tau(  18) = (   0.7797108   0.2325494   1.7846473  )
        19           O   tau(  19) = (   0.6884743   0.0745026   0.5368244  )
        20           O   tau(  20) = (   0.5912412   0.5589858   0.5368244  )
        21           O   tau(  21) = (   0.2202830   0.2325379   0.5368244  )
        22           O   tau(  22) = (  -0.0823010   0.8482993   0.1166193  )
        23           O   tau(  23) = (  -0.1934983   0.3706010   0.1166193  )
        24           O   tau(  24) = (   0.2757993   0.5131505   0.1166193  )
        25           O   tau(  25) = (   0.1934855   0.3705936   1.3644430  )
        26           O   tau(  26) = (   0.0823138   0.8482919   1.3644430  )
        27           O   tau(  27) = (  -0.2757993   0.5131653   1.3644430  )
        28           O   tau(  28) = (  -0.0878870   0.2694458   0.9533686  )
        29           O   tau(  29) = (   0.3105971   0.6551893   0.9533686  )
        30           O   tau(  30) = (  -0.2227086   0.8074149   0.9533686  )

   Crystallographic axes

     site n.     atom                  positions (cryst. coord.)
         1           Fe1 tau(   1) = (  0.0000000  0.0000000  0.7767652  )
         2           Fe1 tau(   2) = (  0.3333330  0.6666670  0.9463058  )
         3           Fe1 tau(   3) = (  0.6666670  0.3333330  0.6091152  )
         4           Fe2 tau(   4) = (  0.6666670  0.3333330  0.1090991  )
         5           Fe2 tau(   5) = (  0.0000000  0.0000000  0.2767753  )
         6           Fe2 tau(   6) = (  0.3333330  0.6666670  0.4462921  )
         7           Bi  tau(   7) = (  0.6666670  0.3333330  0.8352117  )
         8           Bi  tau(   8) = (  0.3333330  0.6666670  0.6697508  )
         9           Bi  tau(   9) = (  0.3333330  0.6666670  0.1697199  )
        10           Bi  tau(  10) = (  0.0000000  0.0000000  0.0001130  )
        11           Bi  tau(  11) = (  0.0000000  0.0000000  0.5001308  )
        12           Bi  tau(  12) = (  0.6666670  0.3333330  0.3351910  )
        13           O   tau(  13) = (  0.0676856  0.7565520  0.8820212  )
        14           O   tau(  14) = (  0.2434480  0.3111326  0.8820212  )
        15           O   tau(  15) = (  0.6888674  0.9323144  0.8820212  )
        16           O   tau(  16) = (  0.7314750  0.6454493  0.7151312  )
        17           O   tau(  17) = (  0.3545507  0.0860267  0.7151312  )
        18           O   tau(  18) = (  0.9139733  0.2685250  0.7151312  )
        19           O   tau(  19) = (  0.7314884  0.0860282  0.2151125  )
        20           O   tau(  20) = (  0.9139718  0.6454612  0.2151125  )
        21           O   tau(  21) = (  0.3545388  0.2685116  0.2151125  )
        22           O   tau(  22) = (  0.4074649  0.9795317  0.0467309  )
        23           O   tau(  23) = (  0.0204683  0.4279331  0.0467309  )
        24           O   tau(  24) = (  0.5720669  0.5925351  0.0467309  )
        25           O   tau(  25) = (  0.4074478  0.4279246  0.5467499  )
        26           O   tau(  26) = (  0.5720754  0.9795232  0.5467499  )
        27           O   tau(  27) = (  0.0204768  0.5925522  0.5467499  )
        28           O   tau(  28) = (  0.0676775  0.3111292  0.3820271  )
        29           O   tau(  29) = (  0.6888708  0.7565474  0.3820271  )
        30           O   tau(  30) = (  0.2434526  0.9323225  0.3820271  )

     number of k points=     2  Gaussian smearing, width (Ry)=  0.0100
                       cart. coord. in units 2pi/alat
        k(    1) = (   0.0000000   0.0000000   0.0000000), wk =   0.2500000
        k(    2) = (   0.0000000  -0.5773503   0.0000000), wk =   0.7500000

                       cryst. coord.
        k(    1) = (   0.0000000   0.0000000   0.0000000), wk =   0.2500000
        k(    2) = (   0.0000000  -0.5000000   0.0000000), wk =   0.7500000

     Dense  grid:    86601 G-vectors     FFT dimensions: (  45,  45, 108)

     Dynamical RAM for                 wfc:       8.26 MB

     Dynamical RAM for     wfc (w. buffer):      41.32 MB

     Dynamical RAM for           str. fact:       1.32 MB

     Dynamical RAM for           local pot:       0.00 MB

     Dynamical RAM for          nlocal pot:      18.59 MB

     Dynamical RAM for                qrad:       4.06 MB

     Dynamical RAM for          rho,v,vnew:       4.49 MB

     Dynamical RAM for               rhoin:       1.50 MB

     Dynamical RAM for            rho*nmix:      10.57 MB

     Dynamical RAM for           G-vectors:       1.40 MB

     Dynamical RAM for          h,s,v(r/c):       0.46 MB

     Dynamical RAM for          <psi|beta>:       1.37 MB

     Dynamical RAM for      wfcinit/wfcrot:      17.81 MB

     Dynamical RAM for           addusdens:      67.73 MB

     Estimated static dynamical RAM per process >      87.41 MB

     Estimated max dynamical RAM per process >     155.14 MB

     Estimated total dynamical RAM >     620.54 MB

     Check: negative core charge=   -0.000023
     Generating pointlists ...
     new r_m :   0.1458 (alat units)  1.5374 (a.u.) for type    1
     new r_m :   0.1687 (alat units)  1.7788 (a.u.) for type    2
     new r_m :   0.1458 (alat units)  1.5374 (a.u.) for type    3
     new r_m :   0.1458 (alat units)  1.5374 (a.u.) for type    4

     Initial potential from superposition of free atoms

     starting charge  281.99969, renormalised to  294.00000

     negative rho (up, down):  1.346E-01 1.346E-01
     Starting wfcs are  204 randomized atomic wfcs

     total cpu time spent up to now is       26.0 secs

     Self-consistent Calculation

     iteration #  1     ecut=    40.00 Ry     beta= 0.20
     CG style diagonalization
     ethr =  1.00E-02,  avg # of iterations =  2.6

     negative rho (up, down):  1.302E-01 1.302E-01

     total cpu time spent up to now is      109.8 secs

     total energy              =   -3189.33374795 Ry
     estimated scf accuracy    <      22.80559447 Ry

     total magnetization       =    -0.00 Bohr mag/cell
     absolute magnetization    =    30.54 Bohr mag/cell

     iteration #  2     ecut=    40.00 Ry     beta= 0.20
     CG style diagonalization
     ethr =  7.76E-03,  avg # of iterations =  3.0

     negative rho (up, down):  1.257E-01 1.257E-01

     total cpu time spent up to now is      185.4 secs

     total energy              =   -3192.22632018 Ry
     estimated scf accuracy    <       9.32599083 Ry

     total magnetization       =    -0.00 Bohr mag/cell
     absolute magnetization    =    29.72 Bohr mag/cell

     iteration #  3     ecut=    40.00 Ry     beta= 0.20
     CG style diagonalization
     ethr =  3.17E-03,  avg # of iterations =  3.1

     negative rho (up, down):  1.267E-01 1.267E-01

     total cpu time spent up to now is      261.6 secs

     total energy              =   -3193.78926371 Ry
     estimated scf accuracy    <       4.35850172 Ry

     total magnetization       =     0.00 Bohr mag/cell
     absolute magnetization    =    28.27 Bohr mag/cell

     iteration #  4     ecut=    40.00 Ry     beta= 0.20
     CG style diagonalization
     ethr =  1.48E-03,  avg # of iterations =  3.3

     negative rho (up, down):  1.245E-01 1.245E-01

     total cpu time spent up to now is      342.0 secs

     total energy              =   -3194.78293964 Ry
     estimated scf accuracy    <       2.39466401 Ry

     total magnetization       =    -0.00 Bohr mag/cell
     absolute magnetization    =    29.09 Bohr mag/cell

     iteration #  5     ecut=    40.00 Ry     beta= 0.20
     CG style diagonalization
     ethr =  8.15E-04,  avg # of iterations =  3.1

     negative rho (up, down):  1.246E-01 1.246E-01

     total cpu time spent up to now is      422.6 secs

     total energy              =   -3195.10840301 Ry
     estimated scf accuracy    <       0.16944187 Ry

     total magnetization       =    -0.00 Bohr mag/cell
     absolute magnetization    =    27.58 Bohr mag/cell

     iteration #  6     ecut=    40.00 Ry     beta= 0.20
     CG style diagonalization
     c_bands:  3 eigenvalues not converged
     c_bands:  2 eigenvalues not converged
     ethr =  5.76E-05,  avg # of iterations =  3.9

     negative rho (up, down):  1.250E-01 1.250E-01

     total cpu time spent up to now is      517.3 secs

     total energy              =   -3195.02028762 Ry
     estimated scf accuracy    <       1.19032539 Ry

     total magnetization       =     0.01 Bohr mag/cell
     absolute magnetization    =    25.97 Bohr mag/cell

     iteration #  7     ecut=    40.00 Ry     beta= 0.20
     CG style diagonalization
     ethr =  5.76E-05,  avg # of iterations =  3.3

     negative rho (up, down):  1.257E-01 1.257E-01

     total cpu time spent up to now is      596.1 secs

     total energy              =   -3195.08054412 Ry
     estimated scf accuracy    <       0.09572785 Ry

     total magnetization       =    -0.00 Bohr mag/cell
     absolute magnetization    =    27.24 Bohr mag/cell

     iteration #  8     ecut=    40.00 Ry     beta= 0.20
     CG style diagonalization
     c_bands:  1 eigenvalues not converged
     ethr =  3.26E-05,  avg # of iterations =  3.4

     negative rho (up, down):  1.258E-01 1.258E-01

     total cpu time spent up to now is      678.0 secs

     total energy              =   -3195.09187288 Ry
     estimated scf accuracy    <       0.14826716 Ry

     total magnetization       =     0.00 Bohr mag/cell
     absolute magnetization    =    27.72 Bohr mag/cell

     iteration #  9     ecut=    40.00 Ry     beta= 0.20
     CG style diagonalization
     c_bands:  1 eigenvalues not converged
     ethr =  3.26E-05,  avg # of iterations =  3.1

     negative rho (up, down):  1.259E-01 1.259E-01

     total cpu time spent up to now is      758.8 secs

     total energy              =   -3195.08945576 Ry
     estimated scf accuracy    <       0.04610225 Ry

     total magnetization       =    -0.00 Bohr mag/cell
     absolute magnetization    =    27.60 Bohr mag/cell

     iteration # 10     ecut=    40.00 Ry     beta= 0.20
     CG style diagonalization
     ethr =  1.57E-05,  avg # of iterations =  3.0

     negative rho (up, down):  1.260E-01 1.260E-01

     total cpu time spent up to now is      852.0 secs

     total energy              =   -3195.08834711 Ry
     estimated scf accuracy    <       0.01235271 Ry

     total magnetization       =     0.00 Bohr mag/cell
     absolute magnetization    =    27.53 Bohr mag/cell

     iteration # 11     ecut=    40.00 Ry     beta= 0.20
     CG style diagonalization
     c_bands:  1 eigenvalues not converged
     c_bands:  1 eigenvalues not converged
     ethr =  4.20E-06,  avg # of iterations =  3.3

     negative rho (up, down):  1.260E-01 1.260E-01

     total cpu time spent up to now is      942.6 secs

     total energy              =   -3195.08994456 Ry
     estimated scf accuracy    <       0.00205150 Ry

     total magnetization       =    -0.00 Bohr mag/cell
     absolute magnetization    =    27.54 Bohr mag/cell

     iteration # 12     ecut=    40.00 Ry     beta= 0.20
     CG style diagonalization
     c_bands:  2 eigenvalues not converged
     c_bands:  2 eigenvalues not converged
     ethr =  6.98E-07,  avg # of iterations =  3.2

     negative rho (up, down):  1.260E-01 1.260E-01

     total cpu time spent up to now is     1031.7 secs

     total energy              =   -3195.09012595 Ry
     estimated scf accuracy    <       0.00153490 Ry

     total magnetization       =     0.00 Bohr mag/cell
     absolute magnetization    =    27.53 Bohr mag/cell

     iteration # 13     ecut=    40.00 Ry     beta= 0.20
     CG style diagonalization
     c_bands:  1 eigenvalues not converged
     c_bands:  1 eigenvalues not converged
     ethr =  5.22E-07,  avg # of iterations =  3.1

     negative rho (up, down):  1.259E-01 1.259E-01

     Magnetic moment per site:
     atom:    1    charge:   12.9909    magn:   -3.7188    constr:    0.0000
     atom:    2    charge:   13.0010    magn:   -3.6020    constr:    0.0000
     atom:    3    charge:   13.0161    magn:   -3.5929    constr:    0.0000
     atom:    4    charge:   13.0161    magn:    3.5927    constr:    0.0000
     atom:    5    charge:   12.9910    magn:    3.7186    constr:    0.0000
     atom:    6    charge:   13.0015    magn:    3.6017    constr:    0.0000
     atom:    7    charge:   10.4946    magn:   -0.0156    constr:    0.0000
     atom:    8    charge:   10.4911    magn:   -0.0123    constr:    0.0000
     atom:    9    charge:   10.4911    magn:    0.0123    constr:    0.0000
     atom:   10    charge:   10.4942    magn:   -0.0042    constr:    0.0000
     atom:   11    charge:   10.4941    magn:    0.0042    constr:    0.0000
     atom:   12    charge:   10.4946    magn:    0.0157    constr:    0.0000
     atom:   13    charge:    5.3961    magn:   -0.2075    constr:    0.0000
     atom:   14    charge:    5.3961    magn:   -0.2075    constr:    0.0000
     atom:   15    charge:    5.3961    magn:   -0.2075    constr:    0.0000
     atom:   16    charge:    5.3943    magn:   -0.2192    constr:    0.0000
     atom:   17    charge:    5.3943    magn:   -0.2192    constr:    0.0000
     atom:   18    charge:    5.3943    magn:   -0.2192    constr:    0.0000
     atom:   19    charge:    5.3935    magn:    0.2193    constr:    0.0000
     atom:   20    charge:    5.3935    magn:    0.2193    constr:    0.0000
     atom:   21    charge:    5.3935    magn:    0.2193    constr:    0.0000
     atom:   22    charge:    5.3859    magn:    0.0655    constr:    0.0000
     atom:   23    charge:    5.3859    magn:    0.0655    constr:    0.0000
     atom:   24    charge:    5.3859    magn:    0.0655    constr:    0.0000
     atom:   25    charge:    5.3860    magn:   -0.0657    constr:    0.0000
     atom:   26    charge:    5.3860    magn:   -0.0657    constr:    0.0000
     atom:   27    charge:    5.3860    magn:   -0.0657    constr:    0.0000
     atom:   28    charge:    5.3954    magn:    0.2077    constr:    0.0000
     atom:   29    charge:    5.3954    magn:    0.2077    constr:    0.0000
     atom:   30    charge:    5.3954    magn:    0.2077    constr:    0.0000

     total cpu time spent up to now is     1119.6 secs

     End of self-consistent calculation

 ------ SPIN UP ------------


          k = 0.0000 0.0000 0.0000 ( 10901 PWs)   bands (ev):

   -79.2258 -79.0256 -78.9422 -74.2864 -74.2174 -74.1550 -45.2414 -45.1879
   -45.1878 -45.0139 -45.0139 -45.0104 -44.9969 -44.8896 -44.8896 -40.4345
   -40.3852 -40.3852 -40.3565 -40.3211 -40.3211 -40.3146 -40.2552 -40.2552
   -11.2456 -11.2456 -11.2124 -11.2124 -11.1893 -11.1893 -11.1583 -11.1492
   -11.1374 -11.1373 -11.1323 -11.1323 -11.1249 -11.1249 -11.0995 -11.0865
   -11.0777 -11.0777 -11.0694 -11.0694 -11.0659 -11.0659 -11.0561 -11.0544
   -11.0544 -11.0456 -11.0275 -11.0275 -11.0161 -11.0161  -7.8857  -7.5061
    -7.4179  -6.6436  -6.5912  -6.1796  -6.1795  -6.0683  -6.0549  -6.0549
    -5.9629  -5.9629  -5.8625  -5.8624  -5.7201  -5.7201  -5.5503  -5.5503
     0.8349   1.0756   1.1549   1.9318   2.0675   2.8231   4.9576   4.9576
     5.0482   5.4592   5.4592   5.5333   5.5682   5.5682   5.7179   5.7717
     5.7717   5.9614   6.0346   6.0346   6.2299   6.2299   6.2715   6.4273
     6.4273   6.4274   6.5199   6.7420   6.7420   7.0570   7.0570   7.1863
     7.3433   7.6274   7.6274   7.7576   7.8752   7.8753   7.9947   7.9947
     8.1784   8.3401   8.3562   8.3563   8.5315   8.5332   8.5333   8.6612
     8.6864   8.6864   8.8268   8.8269   8.9764   8.9765   9.3296   9.3297
     9.3552   9.3708   9.3708   9.4404   9.4404   9.7819   9.7820  10.1136
    10.2563  10.2563  10.2692  10.4429  10.5445  10.6783  10.7446  10.9711
    10.9711  11.6266  11.6266  12.1302  12.1302  12.3387  12.3487  12.3487
    12.4001  12.4544  12.4919  12.4919  13.3185  13.3185  13.9575  13.9575
    14.5000  14.5000  15.0747  15.1960  15.2964  15.3463  16.3941  16.3941
    16.5209  16.5209  16.5605  16.5605  16.8619  16.9036  17.1090  17.1090
    17.1895  17.1895  17.5986  17.5986  18.2926  19.5800  19.7958  19.9706
    20.6937  20.6937  20.9543  21.0379  21.6886  21.6887  21.7981  21.7982
    22.1233  22.1233  22.8323  22.9880  23.0347  23.0347  23.1879  23.6833

     occupation numbers 
     1.0000   1.0000   1.0000   1.0000   1.0000   1.0000   1.0000   1.0000
     1.0000   1.0000   1.0000   1.0000   1.0000   1.0000   1.0000   1.0000
     1.0000   1.0000   1.0000   1.0000   1.0000   1.0000   1.0000   1.0000
     1.0000   1.0000   1.0000   1.0000   1.0000   1.0000   1.0000   1.0000
     1.0000   1.0000   1.0000   1.0000   1.0000   1.0000   1.0000   1.0000
     1.0000   1.0000   1.0000   1.0000   1.0000   1.0000   1.0000   1.0000
     1.0000   1.0000   1.0000   1.0000   1.0000   1.0000   1.0000   1.0000
     1.0000   1.0000   1.0000   1.0000   1.0000   1.0000   1.0000   1.0000
     1.0000   1.0000   1.0000   1.0000   1.0000   1.0000   1.0000   1.0000
     1.0000   1.0000   1.0000   1.0000   1.0000   1.0000   1.0000   1.0000
     1.0000   1.0000   1.0000   1.0000   1.0000   1.0000   1.0000   1.0000
     1.0000   1.0000   1.0000   1.0000   1.0000   1.0000   1.0000   1.0000
     1.0000   1.0000   1.0000   1.0000   1.0000   1.0000   1.0000   1.0000
     1.0000   1.0000   1.0000   1.0000   1.0000   1.0000   1.0000   1.0000
     1.0000   1.0000   1.0000   1.0000   1.0000   1.0000   1.0000   1.0000
     1.0000   1.0000   1.0000   1.0000   1.0000   1.0000   1.0000   1.0000
     1.0000   1.0000   1.0000   1.0000   1.0000   1.0000   1.0000   1.0000
     1.0000   1.0000   1.0000   1.0000   1.0000   1.0000   1.0000   1.0000
     1.0000   0.9896   0.9896   0.0017   0.0017   0.0000   0.0000   0.0000
     0.0000   0.0000   0.0000   0.0000   0.0000   0.0000   0.0000   0.0000
     0.0000   0.0000   0.0000   0.0000   0.0000   0.0000   0.0000   0.0000
     0.0000   0.0000   0.0000   0.0000   0.0000   0.0000   0.0000   0.0000
     0.0000   0.0000   0.0000   0.0000   0.0000   0.0000   0.0000   0.0000
     0.0000   0.0000   0.0000   0.0000   0.0000   0.0000   0.0000   0.0000
     0.0000   0.0000   0.0000   0.0000   0.0000   0.0000   0.0000   0.0000

          k = 0.0000-0.5774 0.0000 ( 10792 PWs)   bands (ev):

   -79.2258 -79.0256 -78.9422 -74.2864 -74.2174 -74.1550 -45.2414 -45.1879
   -45.1878 -45.0139 -45.0139 -45.0104 -44.9969 -44.8896 -44.8896 -40.4345
   -40.3852 -40.3852 -40.3565 -40.3211 -40.3211 -40.3146 -40.2552 -40.2552
   -11.2410 -11.2126 -11.1946 -11.1893 -11.1851 -11.1753 -11.1662 -11.1542
   -11.1374 -11.1351 -11.1243 -11.1207 -11.1156 -11.1123 -11.1053 -11.0985
   -11.0859 -11.0832 -11.0773 -11.0719 -11.0712 -11.0687 -11.0652 -11.0560
   -11.0536 -11.0447 -11.0413 -11.0337 -11.0304 -11.0191  -7.2280  -7.1889
    -7.0232  -6.8548  -6.8182  -6.4415  -6.4187  -6.3115  -6.1762  -6.0968
    -6.0608  -6.0358  -5.9688  -5.8949  -5.7935  -5.7496  -5.6585  -5.5704
     1.0203   1.2424   1.2647   1.5606   1.6243   1.8363   5.0604   5.3411
     5.3878   5.5071   5.6895   5.7023   5.8100   5.8406   5.8690   6.0335
     6.0668   6.1202   6.2295   6.2957   6.4986   6.5842   6.6551   6.7430
     6.7755   6.8293   7.0000   7.0641   7.1698   7.2297   7.2744   7.4039
     7.4749   7.5278   7.6487   7.7340   7.7860   7.8146   7.9088   7.9486
     8.0769   8.1628   8.2069   8.2888   8.3540   8.3855   8.4898   8.5250
     8.5764   8.6463   8.7212   8.7830   8.9531   9.0841   9.1042   9.1437
     9.2012   9.2409   9.2748   9.3878   9.4308   9.5120   9.5708   9.8781
    10.0672  10.1967  10.3806  10.4093  10.4642  10.6253  10.9039  10.9464
    11.0531  11.0909  11.5610  12.0878  12.1588  12.2748  12.3354  12.3770
    12.4424  12.4922  12.6727  12.7536  13.3616  13.4448  13.6206  13.8019
    13.8843  14.3872  14.5990  15.1387  15.1822  15.3717  15.4510  15.4834
    15.5298  15.5702  15.6506  16.6496  16.6944  16.7744  16.8447  16.9343
    16.9982  17.0670  17.1248  17.2025  20.0253  20.1971  20.4727  20.9831
    21.1171  21.2060  21.6958  21.8420  21.9754  22.2857  22.3263  22.3446
    22.4657  22.5093  22.8317  22.8901  23.1117  23.1790  23.2369  23.2917

     occupation numbers 
     1.0000   1.0000   1.0000   1.0000   1.0000   1.0000   1.0000   1.0000
     1.0000   1.0000   1.0000   1.0000   1.0000   1.0000   1.0000   1.0000
     1.0000   1.0000   1.0000   1.0000   1.0000   1.0000   1.0000   1.0000
     1.0000   1.0000   1.0000   1.0000   1.0000   1.0000   1.0000   1.0000
     1.0000   1.0000   1.0000   1.0000   1.0000   1.0000   1.0000   1.0000
     1.0000   1.0000   1.0000   1.0000   1.0000   1.0000   1.0000   1.0000
     1.0000   1.0000   1.0000   1.0000   1.0000   1.0000   1.0000   1.0000
     1.0000   1.0000   1.0000   1.0000   1.0000   1.0000   1.0000   1.0000
     1.0000   1.0000   1.0000   1.0000   1.0000   1.0000   1.0000   1.0000
     1.0000   1.0000   1.0000   1.0000   1.0000   1.0000   1.0000   1.0000
     1.0000   1.0000   1.0000   1.0000   1.0000   1.0000   1.0000   1.0000
     1.0000   1.0000   1.0000   1.0000   1.0000   1.0000   1.0000   1.0000
     1.0000   1.0000   1.0000   1.0000   1.0000   1.0000   1.0000   1.0000
     1.0000   1.0000   1.0000   1.0000   1.0000   1.0000   1.0000   1.0000
     1.0000   1.0000   1.0000   1.0000   1.0000   1.0000   1.0000   1.0000
     1.0000   1.0000   1.0000   1.0000   1.0000   1.0000   1.0000   1.0000
     1.0000   1.0000   1.0000   1.0000   1.0000   1.0000   1.0000   1.0000
     1.0000   1.0000   1.0000   1.0000   1.0000   1.0000   1.0000   1.0000
     1.0000   1.0000   0.9986   0.0065   0.0006   0.0000   0.0000   0.0000
     0.0000   0.0000   0.0000   0.0000   0.0000   0.0000   0.0000   0.0000
     0.0000   0.0000   0.0000   0.0000   0.0000   0.0000   0.0000   0.0000
     0.0000   0.0000   0.0000   0.0000   0.0000   0.0000   0.0000   0.0000
     0.0000   0.0000   0.0000   0.0000   0.0000   0.0000   0.0000   0.0000
     0.0000   0.0000   0.0000   0.0000   0.0000   0.0000   0.0000   0.0000
     0.0000   0.0000   0.0000   0.0000   0.0000   0.0000   0.0000   0.0000

 ------ SPIN DOWN ----------


          k = 0.0000 0.0000 0.0000 ( 10901 PWs)   bands (ev):

   -79.2275 -79.0242 -78.9442 -74.2834 -74.2184 -74.1529 -45.2429 -45.1899
   -45.1899 -45.0126 -45.0126 -45.0122 -44.9957 -44.8917 -44.8917 -40.4315
   -40.3822 -40.3822 -40.3573 -40.3219 -40.3219 -40.3125 -40.2531 -40.2531
   -11.2470 -11.2470 -11.2118 -11.2118 -11.1891 -11.1891 -11.1623 -11.1454
   -11.1381 -11.1381 -11.1343 -11.1343 -11.1220 -11.1220 -11.1001 -11.0861
   -11.0781 -11.0781 -11.0709 -11.0709 -11.0659 -11.0659 -11.0586 -11.0525
   -11.0525 -11.0427 -11.0296 -11.0296 -11.0136 -11.0136  -7.8883  -7.5068
    -7.4162  -6.6447  -6.5910  -6.1844  -6.1842  -6.0662  -6.0567  -6.0567
    -5.9639  -5.9639  -5.8644  -5.8643  -5.7156  -5.7156  -5.5456  -5.5456
     0.8338   1.0765   1.1546   1.9319   2.0673   2.8234   4.9548   4.9548
     5.0457   5.4575   5.4575   5.5323   5.5685   5.5685   5.7188   5.7703
     5.7703   5.9595   6.0348   6.0348   6.2292   6.2293   6.2705   6.4267
     6.4268   6.4286   6.5225   6.7440   6.7441   7.0557   7.0558   7.1855
     7.3440   7.6302   7.6302   7.7574   7.8764   7.8764   7.9933   7.9934
     8.1793   8.3379   8.3555   8.3556   8.5309   8.5336   8.5336   8.6615
     8.6852   8.6852   8.8271   8.8272   8.9781   8.9781   9.3290   9.3291
     9.3543   9.3708   9.3708   9.4394   9.4395   9.7838   9.7839  10.1146
    10.2543  10.2543  10.2689  10.4463  10.5435  10.6773  10.7427  10.9696
    10.9696  11.6240  11.6241  12.1325  12.1325  12.3414  12.3497  12.3497
    12.4008  12.4571  12.4940  12.4940  13.3204  13.3204  13.9587  13.9587
    14.5021  14.5022  15.0730  15.1953  15.2969  15.3477  16.3922  16.3922
    16.5217  16.5218  16.5607  16.5607  16.8622  16.9036  17.1091  17.1091
    17.1889  17.1889  17.5998  17.5999  18.2912  19.5787  19.7949  19.9715
    20.6929  20.6930  20.9553  21.0390  21.6884  21.6885  21.7988  21.7988
    22.1228  22.1230  22.8298  22.9854  23.0348  23.0353  23.1903  23.6862

     occupation numbers 
     1.0000   1.0000   1.0000   1.0000   1.0000   1.0000   1.0000   1.0000
     1.0000   1.0000   1.0000   1.0000   1.0000   1.0000   1.0000   1.0000
     1.0000   1.0000   1.0000   1.0000   1.0000   1.0000   1.0000   1.0000
     1.0000   1.0000   1.0000   1.0000   1.0000   1.0000   1.0000   1.0000
     1.0000   1.0000   1.0000   1.0000   1.0000   1.0000   1.0000   1.0000
     1.0000   1.0000   1.0000   1.0000   1.0000   1.0000   1.0000   1.0000
     1.0000   1.0000   1.0000   1.0000   1.0000   1.0000   1.0000   1.0000
     1.0000   1.0000   1.0000   1.0000   1.0000   1.0000   1.0000   1.0000
     1.0000   1.0000   1.0000   1.0000   1.0000   1.0000   1.0000   1.0000
     1.0000   1.0000   1.0000   1.0000   1.0000   1.0000   1.0000   1.0000
     1.0000   1.0000   1.0000   1.0000   1.0000   1.0000   1.0000   1.0000
     1.0000   1.0000   1.0000   1.0000   1.0000   1.0000   1.0000   1.0000
     1.0000   1.0000   1.0000   1.0000   1.0000   1.0000   1.0000   1.0000
     1.0000   1.0000   1.0000   1.0000   1.0000   1.0000   1.0000   1.0000
     1.0000   1.0000   1.0000   1.0000   1.0000   1.0000   1.0000   1.0000
     1.0000   1.0000   1.0000   1.0000   1.0000   1.0000   1.0000   1.0000
     1.0000   1.0000   1.0000   1.0000   1.0000   1.0000   1.0000   1.0000
     1.0000   1.0000   1.0000   1.0000   1.0000   1.0000   1.0000   1.0000
     1.0000   0.9903   0.9903   0.0016   0.0016   0.0000   0.0000   0.0000
     0.0000   0.0000   0.0000   0.0000   0.0000   0.0000   0.0000   0.0000
     0.0000   0.0000   0.0000   0.0000   0.0000   0.0000   0.0000   0.0000
     0.0000   0.0000   0.0000   0.0000   0.0000   0.0000   0.0000   0.0000
     0.0000   0.0000   0.0000   0.0000   0.0000   0.0000   0.0000   0.0000
     0.0000   0.0000   0.0000   0.0000   0.0000   0.0000   0.0000   0.0000
     0.0000   0.0000   0.0000   0.0000   0.0000   0.0000   0.0000   0.0000

          k = 0.0000-0.5774 0.0000 ( 10792 PWs)   bands (ev):

   -79.2275 -79.0242 -78.9442 -74.2834 -74.2184 -74.1529 -45.2429 -45.1899
   -45.1899 -45.0126 -45.0126 -45.0122 -44.9956 -44.8917 -44.8917 -40.4315
   -40.3822 -40.3822 -40.3573 -40.3219 -40.3219 -40.3125 -40.2531 -40.2531
   -11.2425 -11.2120 -11.1981 -11.1891 -11.1828 -11.1764 -11.1661 -11.1535
   -11.1382 -11.1336 -11.1270 -11.1233 -11.1136 -11.1115 -11.1058 -11.0955
   -11.0866 -11.0840 -11.0769 -11.0723 -11.0704 -11.0690 -11.0655 -11.0571
   -11.0545 -11.0450 -11.0409 -11.0329 -11.0294 -11.0165  -7.2327  -7.1909
    -7.0221  -6.8553  -6.8157  -6.4416  -6.4191  -6.3156  -6.1772  -6.0970
    -6.0639  -6.0365  -5.9693  -5.8969  -5.7902  -5.7460  -5.6546  -5.5659
     1.0187   1.2431   1.2645   1.5608   1.6235   1.8378   5.0570   5.3387
     5.3851   5.5039   5.6889   5.7017   5.8084   5.8415   5.8692   6.0335
     6.0656   6.1207   6.2281   6.2965   6.4981   6.5849   6.6539   6.7421
     6.7771   6.8305   6.9996   7.0642   7.1699   7.2297   7.2738   7.4043
     7.4743   7.5271   7.6492   7.7346   7.7857   7.8150   7.9102   7.9521
     8.0762   8.1637   8.2072   8.2885   8.3541   8.3848   8.4896   8.5237
     8.5766   8.6465   8.7208   8.7834   8.9533   9.0851   9.1031   9.1449
     9.2012   9.2419   9.2767   9.3886   9.4300   9.5114   9.5694   9.8768
    10.0692  10.1974  10.3790  10.4090  10.4630  10.6253  10.9011  10.9447
    11.0527  11.0883  11.5584  12.0904  12.1609  12.2778  12.3367  12.3783
    12.4433  12.4938  12.6743  12.7560  13.3637  13.4458  13.6232  13.8028
    13.8857  14.3893  14.5983  15.1376  15.1810  15.3719  15.4514  15.4829
    15.5294  15.5718  15.6515  16.6478  16.6950  16.7757  16.8443  16.9347
    16.9961  17.0650  17.1271  17.2051  20.0221  20.1951  20.4707  20.9846
    21.1197  21.2078  21.6950  21.8414  21.9749  22.2858  22.3242  22.3445
    22.4658  22.5117  22.8305  22.8895  23.1112  23.1792  23.2364  23.2916

     occupation numbers 
     1.0000   1.0000   1.0000   1.0000   1.0000   1.0000   1.0000   1.0000
     1.0000   1.0000   1.0000   1.0000   1.0000   1.0000   1.0000   1.0000
     1.0000   1.0000   1.0000   1.0000   1.0000   1.0000   1.0000   1.0000
     1.0000   1.0000   1.0000   1.0000   1.0000   1.0000   1.0000   1.0000
     1.0000   1.0000   1.0000   1.0000   1.0000   1.0000   1.0000   1.0000
     1.0000   1.0000   1.0000   1.0000   1.0000   1.0000   1.0000   1.0000
     1.0000   1.0000   1.0000   1.0000   1.0000   1.0000   1.0000   1.0000
     1.0000   1.0000   1.0000   1.0000   1.0000   1.0000   1.0000   1.0000
     1.0000   1.0000   1.0000   1.0000   1.0000   1.0000   1.0000   1.0000
     1.0000   1.0000   1.0000   1.0000   1.0000   1.0000   1.0000   1.0000
     1.0000   1.0000   1.0000   1.0000   1.0000   1.0000   1.0000   1.0000
     1.0000   1.0000   1.0000   1.0000   1.0000   1.0000   1.0000   1.0000
     1.0000   1.0000   1.0000   1.0000   1.0000   1.0000   1.0000   1.0000
     1.0000   1.0000   1.0000   1.0000   1.0000   1.0000   1.0000   1.0000
     1.0000   1.0000   1.0000   1.0000   1.0000   1.0000   1.0000   1.0000
     1.0000   1.0000   1.0000   1.0000   1.0000   1.0000   1.0000   1.0000
     1.0000   1.0000   1.0000   1.0000   1.0000   1.0000   1.0000   1.0000
     1.0000   1.0000   1.0000   1.0000   1.0000   1.0000   1.0000   1.0000
     1.0000   1.0000   0.9987   0.0061   0.0006   0.0000   0.0000   0.0000
     0.0000   0.0000   0.0000   0.0000   0.0000   0.0000   0.0000   0.0000
     0.0000   0.0000   0.0000   0.0000   0.0000   0.0000   0.0000   0.0000
     0.0000   0.0000   0.0000   0.0000   0.0000   0.0000   0.0000   0.0000
     0.0000   0.0000   0.0000   0.0000   0.0000   0.0000   0.0000   0.0000
     0.0000   0.0000   0.0000   0.0000   0.0000   0.0000   0.0000   0.0000
     0.0000   0.0000   0.0000   0.0000   0.0000   0.0000   0.0000   0.0000

     the Fermi energy is    11.8490 ev

!    total energy              =   -3195.09042044 Ry
     estimated scf accuracy    <       0.00029872 Ry
     smearing contrib. (-TS)   =      -0.00048456 Ry
     internal energy E=F+TS    =   -3195.08993588 Ry

     The total energy is F=E-TS. E is the sum of the following terms:
     one-electron contribution =   -1315.73180793 Ry
     hartree contribution      =     843.51592408 Ry
     xc contribution           =    -695.22492279 Ry
     ewald contribution        =   -2027.64912925 Ry

     total magnetization       =     0.00 Bohr mag/cell
     absolute magnetization    =    27.56 Bohr mag/cell

     convergence has been achieved in  13 iterations

     Writing output data file /home/aldair1809/Documentos/QE/4BFO/UHUBBARD/temp/ecut_ecutwfc_40.in/bifeo3-scf.save/

     init_run     :     24.85s CPU     25.45s WALL (       1 calls)
     electrons    :   1076.05s CPU   1093.61s WALL (       1 calls)

     Called by init_run:
     wfcinit      :     21.87s CPU     22.14s WALL (       1 calls)
     wfcinit:atom :      0.03s CPU      0.04s WALL (       4 calls)
     wfcinit:wfcr :     21.56s CPU     21.81s WALL (       4 calls)
     potinit      :      0.59s CPU      0.62s WALL (       1 calls)
     hinit0       :      1.54s CPU      1.57s WALL (       1 calls)

     Called by electrons:
     c_bands      :    981.70s CPU    992.80s WALL (      13 calls)
     sum_band     :     82.03s CPU     85.89s WALL (      13 calls)
     v_of_rho     :      1.89s CPU      1.95s WALL (      14 calls)
     v_h          :      0.06s CPU      0.06s WALL (      14 calls)
     v_xc         :      1.83s CPU      1.89s WALL (      14 calls)
     newd         :     10.93s CPU     13.73s WALL (      14 calls)
     mix_rho      :      0.40s CPU      0.40s WALL (      13 calls)

     Called by c_bands:
     init_us_2    :      1.37s CPU      1.40s WALL (     108 calls)
     ccgdiagg     :    755.84s CPU    765.02s WALL (      52 calls)
     wfcrot       :    246.21s CPU    248.36s WALL (      52 calls)

     Called by sum_band:
     sum_band:wei :      0.01s CPU      0.01s WALL (      13 calls)
     sum_band:loo :     67.23s CPU     68.31s WALL (      13 calls)
     sum_band:buf :      0.26s CPU      0.26s WALL (      52 calls)
     sum_band:ini :      0.65s CPU      0.66s WALL (      52 calls)
     sum_band:cal :     46.23s CPU     46.31s WALL (      52 calls)
     sum_band:bec :      0.28s CPU      0.29s WALL (      52 calls)
     addusdens    :     14.47s CPU     17.21s WALL (      13 calls)
     addusd:skk   :      0.05s CPU      0.06s WALL (      52 calls)
     addusd:dgemm :      7.17s CPU      9.43s WALL (     104 calls)
     addusd:qvan2 :      7.07s CPU      7.09s WALL (     104 calls)

     Called by *cgdiagg:
     h_psi        :    452.56s CPU    460.87s WALL (   23631 calls)
     s_psi        :    273.06s CPU    274.17s WALL (   47210 calls)

     Called by h_psi:
     h_psi:calbec :    166.35s CPU    168.41s WALL (   23631 calls)
     vloc_psi     :    123.37s CPU    129.14s WALL (   23631 calls)
     add_vuspsi   :    161.96s CPU    162.49s WALL (   23631 calls)
     hs_1psi      :    430.75s CPU    437.68s WALL (   23579 calls)
     s_1psi       :    227.68s CPU    229.26s WALL (   23579 calls)

     General routines
     calbec       :    328.13s CPU    331.51s WALL (   47262 calls)
     fft          :      0.89s CPU      0.96s WALL (     292 calls)
     ffts         :      0.07s CPU      0.08s WALL (      26 calls)
     fftw         :    122.62s CPU    128.95s WALL (   78390 calls)

     Parallel routines
     fft_scatt_xy :     21.13s CPU     22.35s WALL (   78708 calls)
     fft_scatt_yz :     23.65s CPU     26.07s WALL (   78708 calls)

     PWSCF        :  18m21.53s CPU  18m40.01s WALL


   This run was terminated on:  13:18: 5  29Sep2024            

=------------------------------------------------------------------------------=
   JOB DONE.
=------------------------------------------------------------------------------=
