
     Program PWSCF v.6.7MaX starts on 24Oct2024 at 19:34:50 

     This program is part of the open-source Quantum ESPRESSO suite
     for quantum simulation of materials; please cite
         "P. Giannozzi et al., J. Phys.:Condens. Matter 21 395502 (2009);
         "P. Giannozzi et al., J. Phys.:Condens. Matter 29 465901 (2017);
          URL http://www.quantum-espresso.org", 
     in publications or presentations arising from this work. More details at
     http://www.quantum-espresso.org/quote

     Parallel version (MPI), running on     4 processors

     MPI processes distributed on     1 nodes
     R & G space division:  proc/nbgrp/npool/nimage =       4
     Waiting for input...
     Reading input from standard input

     Current dimensions of program PWSCF are:
     Max number of different atomic species (ntypx) = 10
     Max number of k-points (npk) =  40000
     Max angular momentum in pseudopotentials (lmaxx) =  3
     Message from routine iosys:
     wrong startingpot: use default (1)

     Subspace diagonalization in iterative solution of the eigenvalue problem:
     one sub-group per band group will be used
     scalapack distributed-memory algorithm (size of sub-group:  2*  2 procs)

     Found symmetry operation: I + ( -0.5000 -0.5000  0.0000)
     This is a supercell, fractional translations are disabled

     Parallelization info
     --------------------
     sticks:   dense  smooth     PW     G-vecs:    dense   smooth      PW
     Min        1061     529    148                52086    18381    2768
     Max        1064     531    149                52087    18382    2771
     Sum        4249    2121    593               208345    73525   11075



     bravais-lattice index     =            1
     lattice parameter (alat)  =      14.9137  a.u.
     unit-cell volume          =    3317.0944 (a.u.)^3
     number of atoms/cell      =           40
     number of atomic types    =            4
     number of electrons       =       392.00
     number of Kohn-Sham states=          235
     kinetic-energy cutoff     =      30.0000  Ry
     charge density cutoff     =     240.0000  Ry
     scf convergence threshold =      1.0E-05
     mixing beta               =       0.4000
     number of iterations used =            8  plain     mixing
     Exchange-correlation=  SLA  PW   PBX  PBC
                           (   1   4   3   4   0   0   0)

     celldm(1)=  14.913719  celldm(2)=   0.000000  celldm(3)=   0.000000
     celldm(4)=   0.000000  celldm(5)=   0.000000  celldm(6)=   0.000000

     crystal axes: (cart. coord. in units of alat)
               a(1) = (   1.000000   0.000000   0.000000 )  
               a(2) = (   0.000000   1.000000   0.000000 )  
               a(3) = (   0.000000   0.000000   1.000000 )  

     reciprocal axes: (cart. coord. in units 2 pi/alat)
               b(1) = (  1.000000  0.000000  0.000000 )  
               b(2) = (  0.000000  1.000000  0.000000 )  
               b(3) = (  0.000000  0.000000  1.000000 )  


     PseudoPot. # 1 for O  read from file:
     /home/aldair1809/Programas/QE/q-e-qe-7.3/pseudo/o_pbe_v1.2.uspp.F.UPF
     MD5 check sum: 734c27235a0248c51dbae37a1fbe46ec
     Pseudo is Ultrasoft + core correction, Zval =  6.0
     Generated by new atomic code, or converted to UPF format
     Using radial grid of  737 points,  5 beta functions with: 
                l(1) =   0
                l(2) =   0
                l(3) =   1
                l(4) =   1
                l(5) =   2
     Q(r) pseudized with  8 coefficients,  rinner =    0.900   0.900   0.900
                                                       0.900   0.900

     PseudoPot. # 2 for Bi read from file:
     /home/aldair1809/Programas/QE/q-e-qe-7.3/pseudo/bi_pbe_v1.uspp.F.UPF
     MD5 check sum: cceb9f28ec65b6d7ff33140f5b0b1758
     Pseudo is Ultrasoft + core correction, Zval = 15.0
     Generated by new atomic code, or converted to UPF format
     Using radial grid of  899 points,  6 beta functions with: 
                l(1) =   0
                l(2) =   0
                l(3) =   1
                l(4) =   1
                l(5) =   2
                l(6) =   2
     Q(r) pseudized with  6 coefficients,  rinner =    1.000   1.000   1.000
                                                       1.000   1.000

     PseudoPot. # 3 for Fe read from file:
     /home/aldair1809/Programas/QE/q-e-qe-7.3/pseudo/fe_pbe_v1.5.uspp.F.UPF
     MD5 check sum: a130daea23fe5165f5d574ae7f82ed95
     Pseudo is Ultrasoft + core correction, Zval = 16.0
     Generated by new atomic code, or converted to UPF format
     Using radial grid of  861 points,  6 beta functions with: 
                l(1) =   0
                l(2) =   0
                l(3) =   1
                l(4) =   1
                l(5) =   2
                l(6) =   2
     Q(r) pseudized with  8 coefficients,  rinner =    1.000   1.000   1.000
                                                       1.000   1.000

     PseudoPot. # 4 for Fe read from file:
     /home/aldair1809/Programas/QE/q-e-qe-7.3/pseudo/fe_pbe_v1.5.uspp.F.UPF
     MD5 check sum: a130daea23fe5165f5d574ae7f82ed95
     Pseudo is Ultrasoft + core correction, Zval = 16.0
     Generated by new atomic code, or converted to UPF format
     Using radial grid of  861 points,  6 beta functions with: 
                l(1) =   0
                l(2) =   0
                l(3) =   1
                l(4) =   1
                l(5) =   2
                l(6) =   2
     Q(r) pseudized with  8 coefficients,  rinner =    1.000   1.000   1.000
                                                       1.000   1.000

     atomic species   valence    mass     pseudopotential
        O              6.00    15.99940     O ( 1.00)
        Bi            15.00   208.98040     Bi( 1.00)
        Fe1           16.00    55.84500     Fe( 1.00)
        Fe2           16.00    55.84500     Fe( 1.00)

     Starting magnetic structure 
     atomic species   magnetization
        O            0.000
        Bi           0.000
        Fe1         -0.800
        Fe2          0.800

      8 Sym. Ops., with inversion, found


                                    s                        frac. trans.

      isym =  1     identity                                     

 cryst.   s( 1) = (     1          0          0      )
                  (     0          1          0      )
                  (     0          0          1      )

 cart.    s( 1) = (  1.0000000  0.0000000  0.0000000 )
                  (  0.0000000  1.0000000  0.0000000 )
                  (  0.0000000  0.0000000  1.0000000 )


      isym =  2     180 deg rotation - cart. axis [0,0,1]        

 cryst.   s( 2) = (    -1          0          0      )
                  (     0         -1          0      )
                  (     0          0          1      )

 cart.    s( 2) = ( -1.0000000  0.0000000  0.0000000 )
                  (  0.0000000 -1.0000000  0.0000000 )
                  (  0.0000000  0.0000000  1.0000000 )


      isym =  3     180 deg rotation - cart. axis [1,1,0]        

 cryst.   s( 3) = (     0          1          0      )
                  (     1          0          0      )
                  (     0          0         -1      )

 cart.    s( 3) = (  0.0000000  1.0000000  0.0000000 )
                  (  1.0000000  0.0000000  0.0000000 )
                  (  0.0000000  0.0000000 -1.0000000 )


      isym =  4     180 deg rotation - cart. axis [1,-1,0]       

 cryst.   s( 4) = (     0         -1          0      )
                  (    -1          0          0      )
                  (     0          0         -1      )

 cart.    s( 4) = (  0.0000000 -1.0000000  0.0000000 )
                  ( -1.0000000  0.0000000  0.0000000 )
                  (  0.0000000  0.0000000 -1.0000000 )


      isym =  5     inversion                                    

 cryst.   s( 5) = (    -1          0          0      )
                  (     0         -1          0      )
                  (     0          0         -1      )

 cart.    s( 5) = ( -1.0000000  0.0000000  0.0000000 )
                  (  0.0000000 -1.0000000  0.0000000 )
                  (  0.0000000  0.0000000 -1.0000000 )


      isym =  6     inv. 180 deg rotation - cart. axis [0,0,1]   

 cryst.   s( 6) = (     1          0          0      )
                  (     0          1          0      )
                  (     0          0         -1      )

 cart.    s( 6) = (  1.0000000  0.0000000  0.0000000 )
                  (  0.0000000  1.0000000  0.0000000 )
                  (  0.0000000  0.0000000 -1.0000000 )


      isym =  7     inv. 180 deg rotation - cart. axis [1,1,0]   

 cryst.   s( 7) = (     0         -1          0      )
                  (    -1          0          0      )
                  (     0          0          1      )

 cart.    s( 7) = (  0.0000000 -1.0000000  0.0000000 )
                  ( -1.0000000  0.0000000  0.0000000 )
                  (  0.0000000  0.0000000  1.0000000 )


      isym =  8     inv. 180 deg rotation - cart. axis [1,-1,0]  

 cryst.   s( 8) = (     0          1          0      )
                  (     1          0          0      )
                  (     0          0          1      )

 cart.    s( 8) = (  0.0000000  1.0000000  0.0000000 )
                  (  1.0000000  0.0000000  0.0000000 )
                  (  0.0000000  0.0000000  1.0000000 )


     point group D_2h (mmm) 
     there are  8 classes
     the character table:

       E     C2    C2'   C2''  i     s_v   s_v'  s_v''
A_g    1.00  1.00  1.00  1.00  1.00  1.00  1.00  1.00
B_1g   1.00  1.00 -1.00 -1.00  1.00  1.00 -1.00 -1.00
B_2g   1.00 -1.00  1.00 -1.00  1.00 -1.00  1.00 -1.00
B_3g   1.00 -1.00 -1.00  1.00  1.00 -1.00 -1.00  1.00
A_u    1.00  1.00  1.00  1.00 -1.00 -1.00 -1.00 -1.00
B_1u   1.00  1.00 -1.00 -1.00 -1.00 -1.00  1.00  1.00
B_2u   1.00 -1.00  1.00 -1.00 -1.00  1.00 -1.00  1.00
B_3u   1.00 -1.00 -1.00  1.00 -1.00  1.00  1.00 -1.00

     the symmetry operations in each class and the name of the first element:

     E        1
          identity                                               
     C2       2
          180 deg rotation - cart. axis [0,0,1]                  
     C2'      4
          180 deg rotation - cart. axis [1,-1,0]                 
     C2''     3
          180 deg rotation - cart. axis [1,1,0]                  
     i        5
          inversion                                              
     s_v      6
          inv. 180 deg rotation - cart. axis [0,0,1]             
     s_v'     8
          inv. 180 deg rotation - cart. axis [1,-1,0]            
     s_v''    7
          inv. 180 deg rotation - cart. axis [1,1,0]             

   Cartesian axes

     site n.     atom                  positions (alat units)
         1           Bi  tau(   1) = (   0.0000000   0.0000000   0.0000000  )
         2           Bi  tau(   2) = (   0.5000000   0.5000000   0.0000000  )
         3           Bi  tau(   3) = (   0.5000000   0.0000000   0.0000000  )
         4           Bi  tau(   4) = (   0.0000000   0.5000000   0.5000000  )
         5           Bi  tau(   5) = (   0.0000000   0.0000000   0.5000000  )
         6           Bi  tau(   6) = (   0.5000000   0.5000000   0.5000000  )
         7           Bi  tau(   7) = (   0.5000000   0.0000000   0.5000000  )
         8           Bi  tau(   8) = (   0.0000000   0.5000000   0.0000000  )
         9           Fe2 tau(   9) = (   0.2500000   0.2500000   0.2500000  )
        10           Fe2 tau(  10) = (   0.7500000   0.7500000   0.2500000  )
        11           Fe1 tau(  11) = (   0.7500000   0.2500000   0.2500000  )
        12           Fe1 tau(  12) = (   0.2500000   0.7500000   0.7500000  )
        13           Fe2 tau(  13) = (   0.2500000   0.2500000   0.7500000  )
        14           Fe2 tau(  14) = (   0.7500000   0.7500000   0.7500000  )
        15           Fe1 tau(  15) = (   0.7500000   0.2500000   0.7500000  )
        16           Fe1 tau(  16) = (   0.2500000   0.7500000   0.2500000  )
        17           O   tau(  17) = (   0.2500000   0.2500000   0.0000000  )
        18           O   tau(  18) = (   0.2500000   0.0000000   0.2500000  )
        19           O   tau(  19) = (   0.0000000   0.2500000   0.2500000  )
        20           O   tau(  20) = (   0.7500000   0.7500000   0.0000000  )
        21           O   tau(  21) = (   0.7500000   0.2500000   0.0000000  )
        22           O   tau(  22) = (   0.2500000   0.7500000   0.5000000  )
        23           O   tau(  23) = (   0.2500000   0.2500000   0.5000000  )
        24           O   tau(  24) = (   0.7500000   0.7500000   0.5000000  )
        25           O   tau(  25) = (   0.7500000   0.2500000   0.5000000  )
        26           O   tau(  26) = (   0.2500000   0.7500000   0.0000000  )
        27           O   tau(  27) = (   0.7500000   0.5000000   0.2500000  )
        28           O   tau(  28) = (   0.7500000   0.0000000   0.2500000  )
        29           O   tau(  29) = (   0.2500000   0.5000000   0.7500000  )
        30           O   tau(  30) = (   0.2500000   0.0000000   0.7500000  )
        31           O   tau(  31) = (   0.7500000   0.5000000   0.7500000  )
        32           O   tau(  32) = (   0.7500000   0.0000000   0.7500000  )
        33           O   tau(  33) = (   0.2500000   0.5000000   0.2500000  )
        34           O   tau(  34) = (   0.5000000   0.7500000   0.2500000  )
        35           O   tau(  35) = (   0.5000000   0.2500000   0.2500000  )
        36           O   tau(  36) = (   0.0000000   0.7500000   0.7500000  )
        37           O   tau(  37) = (   0.0000000   0.2500000   0.7500000  )
        38           O   tau(  38) = (   0.5000000   0.7500000   0.7500000  )
        39           O   tau(  39) = (   0.5000000   0.2500000   0.7500000  )
        40           O   tau(  40) = (   0.0000000   0.7500000   0.2500000  )

   Crystallographic axes

     site n.     atom                  positions (cryst. coord.)
         1           Bi  tau(   1) = (  0.0000000  0.0000000  0.0000000  )
         2           Bi  tau(   2) = (  0.5000000  0.5000000  0.0000000  )
         3           Bi  tau(   3) = (  0.5000000  0.0000000  0.0000000  )
         4           Bi  tau(   4) = (  0.0000000  0.5000000  0.5000000  )
         5           Bi  tau(   5) = (  0.0000000  0.0000000  0.5000000  )
         6           Bi  tau(   6) = (  0.5000000  0.5000000  0.5000000  )
         7           Bi  tau(   7) = (  0.5000000  0.0000000  0.5000000  )
         8           Bi  tau(   8) = (  0.0000000  0.5000000  0.0000000  )
         9           Fe2 tau(   9) = (  0.2500000  0.2500000  0.2500000  )
        10           Fe2 tau(  10) = (  0.7500000  0.7500000  0.2500000  )
        11           Fe1 tau(  11) = (  0.7500000  0.2500000  0.2500000  )
        12           Fe1 tau(  12) = (  0.2500000  0.7500000  0.7500000  )
        13           Fe2 tau(  13) = (  0.2500000  0.2500000  0.7500000  )
        14           Fe2 tau(  14) = (  0.7500000  0.7500000  0.7500000  )
        15           Fe1 tau(  15) = (  0.7500000  0.2500000  0.7500000  )
        16           Fe1 tau(  16) = (  0.2500000  0.7500000  0.2500000  )
        17           O   tau(  17) = (  0.2500000  0.2500000  0.0000000  )
        18           O   tau(  18) = (  0.2500000  0.0000000  0.2500000  )
        19           O   tau(  19) = (  0.0000000  0.2500000  0.2500000  )
        20           O   tau(  20) = (  0.7500000  0.7500000  0.0000000  )
        21           O   tau(  21) = (  0.7500000  0.2500000  0.0000000  )
        22           O   tau(  22) = (  0.2500000  0.7500000  0.5000000  )
        23           O   tau(  23) = (  0.2500000  0.2500000  0.5000000  )
        24           O   tau(  24) = (  0.7500000  0.7500000  0.5000000  )
        25           O   tau(  25) = (  0.7500000  0.2500000  0.5000000  )
        26           O   tau(  26) = (  0.2500000  0.7500000  0.0000000  )
        27           O   tau(  27) = (  0.7500000  0.5000000  0.2500000  )
        28           O   tau(  28) = (  0.7500000  0.0000000  0.2500000  )
        29           O   tau(  29) = (  0.2500000  0.5000000  0.7500000  )
        30           O   tau(  30) = (  0.2500000  0.0000000  0.7500000  )
        31           O   tau(  31) = (  0.7500000  0.5000000  0.7500000  )
        32           O   tau(  32) = (  0.7500000  0.0000000  0.7500000  )
        33           O   tau(  33) = (  0.2500000  0.5000000  0.2500000  )
        34           O   tau(  34) = (  0.5000000  0.7500000  0.2500000  )
        35           O   tau(  35) = (  0.5000000  0.2500000  0.2500000  )
        36           O   tau(  36) = (  0.0000000  0.7500000  0.7500000  )
        37           O   tau(  37) = (  0.0000000  0.2500000  0.7500000  )
        38           O   tau(  38) = (  0.5000000  0.7500000  0.7500000  )
        39           O   tau(  39) = (  0.5000000  0.2500000  0.7500000  )
        40           O   tau(  40) = (  0.0000000  0.7500000  0.2500000  )

     number of k points=    21  Methfessel-Paxton smearing, width (Ry)=  0.0100
                       cart. coord. in units 2pi/alat
        k(    1) = (   0.0000000   0.0000000   0.0000000), wk =   0.0156250
        k(    2) = (   0.0000000   0.0000000   0.2500000), wk =   0.0312500
        k(    3) = (   0.0000000   0.0000000  -0.5000000), wk =   0.0156250
        k(    4) = (   0.0000000   0.2500000   0.2500000), wk =   0.1250000
        k(    5) = (   0.0000000   0.2500000  -0.5000000), wk =   0.0625000
        k(    6) = (   0.0000000  -0.5000000  -0.5000000), wk =   0.0312500
        k(    7) = (   0.2500000   0.2500000   0.2500000), wk =   0.0625000
        k(    8) = (   0.2500000   0.2500000  -0.5000000), wk =   0.0312500
        k(    9) = (   0.2500000  -0.5000000  -0.5000000), wk =   0.0625000
        k(   10) = (  -0.5000000  -0.5000000  -0.5000000), wk =   0.0156250
        k(   11) = (   0.2500000   0.0000000   0.0000000), wk =   0.0625000
        k(   12) = (  -0.5000000   0.0000000   0.0000000), wk =   0.0312500
        k(   13) = (   0.2500000  -0.2500000   0.0000000), wk =   0.0312500
        k(   14) = (  -0.2500000  -0.2500000   0.0000000), wk =   0.0312500
        k(   15) = (  -0.5000000  -0.2500000   0.0000000), wk =   0.0625000
        k(   16) = (   0.0000000  -0.5000000   0.2500000), wk =   0.0625000
        k(   17) = (  -0.5000000   0.5000000   0.0000000), wk =   0.0156250
        k(   18) = (   0.2500000  -0.2500000   0.2500000), wk =   0.0625000
        k(   19) = (  -0.5000000  -0.2500000   0.2500000), wk =   0.1250000
        k(   20) = (  -0.2500000   0.2500000   0.5000000), wk =   0.0312500
        k(   21) = (  -0.5000000   0.5000000   0.2500000), wk =   0.0312500

                       cryst. coord.
        k(    1) = (   0.0000000   0.0000000   0.0000000), wk =   0.0156250
        k(    2) = (   0.0000000   0.0000000   0.2500000), wk =   0.0312500
        k(    3) = (   0.0000000   0.0000000  -0.5000000), wk =   0.0156250
        k(    4) = (   0.0000000   0.2500000   0.2500000), wk =   0.1250000
        k(    5) = (   0.0000000   0.2500000  -0.5000000), wk =   0.0625000
        k(    6) = (   0.0000000  -0.5000000  -0.5000000), wk =   0.0312500
        k(    7) = (   0.2500000   0.2500000   0.2500000), wk =   0.0625000
        k(    8) = (   0.2500000   0.2500000  -0.5000000), wk =   0.0312500
        k(    9) = (   0.2500000  -0.5000000  -0.5000000), wk =   0.0625000
        k(   10) = (  -0.5000000  -0.5000000  -0.5000000), wk =   0.0156250
        k(   11) = (   0.2500000   0.0000000   0.0000000), wk =   0.0625000
        k(   12) = (  -0.5000000   0.0000000   0.0000000), wk =   0.0312500
        k(   13) = (   0.2500000  -0.2500000   0.0000000), wk =   0.0312500
        k(   14) = (  -0.2500000  -0.2500000   0.0000000), wk =   0.0312500
        k(   15) = (  -0.5000000  -0.2500000   0.0000000), wk =   0.0625000
        k(   16) = (   0.0000000  -0.5000000   0.2500000), wk =   0.0625000
        k(   17) = (  -0.5000000   0.5000000   0.0000000), wk =   0.0156250
        k(   18) = (   0.2500000  -0.2500000   0.2500000), wk =   0.0625000
        k(   19) = (  -0.5000000  -0.2500000   0.2500000), wk =   0.1250000
        k(   20) = (  -0.2500000   0.2500000   0.5000000), wk =   0.0312500
        k(   21) = (  -0.5000000   0.5000000   0.2500000), wk =   0.0312500

     Dense  grid:   208345 G-vectors     FFT dimensions: (  75,  75,  75)

     Smooth grid:    73525 G-vectors     FFT dimensions: (  54,  54,  54)

     Dynamical RAM for                 wfc:       8.25 MB

     Dynamical RAM for     wfc (w. buffer):     354.79 MB

     Dynamical RAM for           str. fact:       3.18 MB

     Dynamical RAM for           local pot:       0.00 MB

     Dynamical RAM for          nlocal pot:      21.07 MB

     Dynamical RAM for                qrad:       4.98 MB

     Dynamical RAM for          rho,v,vnew:       9.66 MB

     Dynamical RAM for               rhoin:       3.22 MB

     Dynamical RAM for            rho*nmix:      25.43 MB

     Dynamical RAM for           G-vectors:       3.12 MB

     Dynamical RAM for          h,s,v(r/c):       0.63 MB

     Dynamical RAM for          <psi|beta>:       2.15 MB

     Dynamical RAM for      wfcinit/wfcrot:      20.80 MB

     Dynamical RAM for           addusdens:     167.70 MB

     Estimated static dynamical RAM per process >     434.31 MB

     Estimated max dynamical RAM per process >     602.01 MB

     Estimated total dynamical RAM >       2.35 GB

     Check: negative core charge=   -0.000014
     Generating pointlists ...
     new r_m :   0.1031 (alat units)  1.5380 (a.u.) for type    1
     new r_m :   0.1458 (alat units)  2.1750 (a.u.) for type    2
     new r_m :   0.1031 (alat units)  1.5380 (a.u.) for type    3
     new r_m :   0.1031 (alat units)  1.5380 (a.u.) for type    4

     Initial potential from superposition of free atoms

     starting charge  375.99958, renormalised to  392.00000

     negative rho (up, down):  1.729E-01 1.729E-01
     Starting wfcs are  272 randomized atomic wfcs

     total cpu time spent up to now is      261.3 secs

     Self-consistent Calculation

     iteration #  1     ecut=    30.00 Ry     beta= 0.40
     CG style diagonalization
     ethr =  1.00E-02,  avg # of iterations =  2.4

     negative rho (up, down):  1.593E-01 1.593E-01

     total cpu time spent up to now is     1053.2 secs

     total energy              =   -4250.26390887 Ry
     estimated scf accuracy    <      31.18529618 Ry

     total magnetization       =    -0.00 Bohr mag/cell
     absolute magnetization    =    39.97 Bohr mag/cell

     iteration #  2     ecut=    30.00 Ry     beta= 0.40
     CG style diagonalization
     ethr =  7.96E-03,  avg # of iterations =  3.5

     negative rho (up, down):  1.593E-01 1.593E-01

     total cpu time spent up to now is     2068.8 secs

     total energy              =   -4256.24862535 Ry
     estimated scf accuracy    <       9.08313851 Ry

     total magnetization       =    -0.00 Bohr mag/cell
     absolute magnetization    =    37.11 Bohr mag/cell

     iteration #  3     ecut=    30.00 Ry     beta= 0.40
     CG style diagonalization
     ethr =  2.32E-03,  avg # of iterations =  3.3

     negative rho (up, down):  1.562E-01 1.562E-01

     total cpu time spent up to now is     3021.9 secs

     total energy              =   -4258.82951437 Ry
     estimated scf accuracy    <       2.91735715 Ry

     total magnetization       =     0.00 Bohr mag/cell
     absolute magnetization    =    36.74 Bohr mag/cell

     iteration #  4     ecut=    30.00 Ry     beta= 0.40
     CG style diagonalization
     ethr =  7.44E-04,  avg # of iterations =  3.2

     negative rho (up, down):  1.579E-01 1.579E-01

     total cpu time spent up to now is     3948.6 secs

     total energy              =   -4259.10519602 Ry
     estimated scf accuracy    <       0.23307065 Ry

     total magnetization       =     0.00 Bohr mag/cell
     absolute magnetization    =    34.22 Bohr mag/cell

     iteration #  5     ecut=    30.00 Ry     beta= 0.40
     CG style diagonalization
     c_bands:  1 eigenvalues not converged
     c_bands:  1 eigenvalues not converged
     c_bands:  1 eigenvalues not converged
     c_bands:  2 eigenvalues not converged
     c_bands:  2 eigenvalues not converged
     c_bands:  1 eigenvalues not converged
     c_bands:  1 eigenvalues not converged
     c_bands:  2 eigenvalues not converged
     c_bands:  2 eigenvalues not converged
     ethr =  5.95E-05,  avg # of iterations =  3.9

     negative rho (up, down):  1.579E-01 1.579E-01

     total cpu time spent up to now is     5107.5 secs

     total energy              =   -4259.19518036 Ry
     estimated scf accuracy    <       0.75904060 Ry

     total magnetization       =    -0.01 Bohr mag/cell
     absolute magnetization    =    32.73 Bohr mag/cell

     iteration #  6     ecut=    30.00 Ry     beta= 0.40
     CG style diagonalization
     ethr =  5.95E-05,  avg # of iterations =  3.2

     negative rho (up, down):  1.582E-01 1.582E-01

     total cpu time spent up to now is     6061.8 secs

     total energy              =   -4259.21355390 Ry
     estimated scf accuracy    <       0.09565425 Ry

     total magnetization       =    -0.00 Bohr mag/cell
     absolute magnetization    =    32.80 Bohr mag/cell

     iteration #  7     ecut=    30.00 Ry     beta= 0.40
     CG style diagonalization
     c_bands:  1 eigenvalues not converged
     ethr =  2.44E-05,  avg # of iterations =  3.3

     negative rho (up, down):  1.582E-01 1.582E-01

     total cpu time spent up to now is     7040.1 secs

     total energy              =   -4259.23485167 Ry
     estimated scf accuracy    <       0.02695747 Ry

     total magnetization       =    -0.02 Bohr mag/cell
     absolute magnetization    =    31.93 Bohr mag/cell

     iteration #  8     ecut=    30.00 Ry     beta= 0.40
     CG style diagonalization
     c_bands:  1 eigenvalues not converged
     c_bands:  1 eigenvalues not converged
     c_bands:  1 eigenvalues not converged
     c_bands:  1 eigenvalues not converged
     c_bands:  1 eigenvalues not converged
     c_bands:  1 eigenvalues not converged
     ethr =  6.88E-06,  avg # of iterations =  3.2

     negative rho (up, down):  1.582E-01 1.582E-01

     total cpu time spent up to now is     7973.6 secs

     total energy              =   -4259.23567263 Ry
     estimated scf accuracy    <       0.02267912 Ry

     total magnetization       =     0.22 Bohr mag/cell
     absolute magnetization    =    31.73 Bohr mag/cell

     iteration #  9     ecut=    30.00 Ry     beta= 0.40
     CG style diagonalization
     c_bands:  1 eigenvalues not converged
     c_bands:  1 eigenvalues not converged
     c_bands:  1 eigenvalues not converged
     ethr =  5.79E-06,  avg # of iterations =  3.0

     negative rho (up, down):  1.582E-01 1.582E-01

     total cpu time spent up to now is     8858.4 secs

     total energy              =   -4259.23247644 Ry
     estimated scf accuracy    <       0.04997973 Ry

     total magnetization       =    -0.52 Bohr mag/cell
     absolute magnetization    =    31.65 Bohr mag/cell

     iteration # 10     ecut=    30.00 Ry     beta= 0.40
     CG style diagonalization
     ethr =  5.79E-06,  avg # of iterations =  3.1

     negative rho (up, down):  1.581E-01 1.581E-01

     total cpu time spent up to now is     9766.9 secs

     total energy              =   -4259.23524459 Ry
     estimated scf accuracy    <       0.00243392 Ry

     total magnetization       =    -0.02 Bohr mag/cell
     absolute magnetization    =    31.56 Bohr mag/cell

     iteration # 11     ecut=    30.00 Ry     beta= 0.40
     CG style diagonalization
     c_bands:  1 eigenvalues not converged
     c_bands:  1 eigenvalues not converged
     c_bands:  2 eigenvalues not converged
     c_bands:  1 eigenvalues not converged
     c_bands:  3 eigenvalues not converged
     c_bands:  2 eigenvalues not converged
     c_bands:  2 eigenvalues not converged
     c_bands:  1 eigenvalues not converged
     c_bands:  1 eigenvalues not converged
     c_bands:  1 eigenvalues not converged
     c_bands:  1 eigenvalues not converged
     c_bands:  1 eigenvalues not converged
     c_bands:  1 eigenvalues not converged
     c_bands:  1 eigenvalues not converged
     ethr =  6.21E-07,  avg # of iterations =  3.5

     negative rho (up, down):  1.582E-01 1.582E-01

     total cpu time spent up to now is    10804.5 secs

     total energy              =   -4259.23609255 Ry
     estimated scf accuracy    <       0.00107778 Ry

     total magnetization       =     0.01 Bohr mag/cell
     absolute magnetization    =    31.71 Bohr mag/cell

     iteration # 12     ecut=    30.00 Ry     beta= 0.40
     CG style diagonalization
     c_bands:  1 eigenvalues not converged
     c_bands:  1 eigenvalues not converged
     c_bands:  2 eigenvalues not converged
     ethr =  2.75E-07,  avg # of iterations =  3.3

     negative rho (up, down):  1.581E-01 1.582E-01

     total cpu time spent up to now is    11773.1 secs

     total energy              =   -4259.23629790 Ry
     estimated scf accuracy    <       0.00004614 Ry

     total magnetization       =     0.01 Bohr mag/cell
     absolute magnetization    =    31.69 Bohr mag/cell

     iteration # 13     ecut=    30.00 Ry     beta= 0.40
     CG style diagonalization
     c_bands:  1 eigenvalues not converged
     ethr =  1.18E-08,  avg # of iterations =  3.7

     negative rho (up, down):  1.581E-01 1.581E-01

     total cpu time spent up to now is    12871.7 secs

     total energy              =   -4259.23631795 Ry
     estimated scf accuracy    <       0.00002230 Ry

     total magnetization       =     0.01 Bohr mag/cell
     absolute magnetization    =    31.69 Bohr mag/cell

     iteration # 14     ecut=    30.00 Ry     beta= 0.40
     CG style diagonalization
     ethr =  5.69E-09,  avg # of iterations =  3.3

     negative rho (up, down):  1.581E-01 1.581E-01

     Magnetic moment per site:
     atom:    1    charge:   11.7844    magn:    0.0000    constr:    0.0000
     atom:    2    charge:   11.7853    magn:    0.0000    constr:    0.0000
     atom:    3    charge:   11.7848    magn:    0.0000    constr:    0.0000
     atom:    4    charge:   11.7853    magn:    0.0000    constr:    0.0000
     atom:    5    charge:   11.7847    magn:    0.0000    constr:    0.0000
     atom:    6    charge:   11.7855    magn:    0.0000    constr:    0.0000
     atom:    7    charge:   11.7853    magn:    0.0000    constr:    0.0000
     atom:    8    charge:   11.7848    magn:    0.0000    constr:    0.0000
     atom:    9    charge:   13.0384    magn:    3.4286    constr:    0.0000
     atom:   10    charge:   13.0384    magn:    3.4286    constr:    0.0000
     atom:   11    charge:   13.0386    magn:   -3.4281    constr:    0.0000
     atom:   12    charge:   13.0386    magn:   -3.4281    constr:    0.0000
     atom:   13    charge:   13.0384    magn:    3.4286    constr:    0.0000
     atom:   14    charge:   13.0384    magn:    3.4286    constr:    0.0000
     atom:   15    charge:   13.0386    magn:   -3.4281    constr:    0.0000
     atom:   16    charge:   13.0386    magn:   -3.4281    constr:    0.0000
     atom:   17    charge:    5.3572    magn:    0.1148    constr:    0.0000
     atom:   18    charge:    5.3591    magn:    0.0000    constr:    0.0000
     atom:   19    charge:    5.3591    magn:    0.0000    constr:    0.0000
     atom:   20    charge:    5.3572    magn:    0.1148    constr:    0.0000
     atom:   21    charge:    5.3574    magn:   -0.1148    constr:    0.0000
     atom:   22    charge:    5.3593    magn:   -0.1148    constr:    0.0000
     atom:   23    charge:    5.3590    magn:    0.1148    constr:    0.0000
     atom:   24    charge:    5.3590    magn:    0.1148    constr:    0.0000
     atom:   25    charge:    5.3593    magn:   -0.1148    constr:    0.0000
     atom:   26    charge:    5.3574    magn:   -0.1148    constr:    0.0000
     atom:   27    charge:    5.3612    magn:    0.0000    constr:    0.0000
     atom:   28    charge:    5.3591    magn:    0.0000    constr:    0.0000
     atom:   29    charge:    5.3612    magn:    0.0000    constr:    0.0000
     atom:   30    charge:    5.3591    magn:    0.0000    constr:    0.0000
     atom:   31    charge:    5.3612    magn:    0.0000    constr:    0.0000
     atom:   32    charge:    5.3591    magn:    0.0000    constr:    0.0000
     atom:   33    charge:    5.3612    magn:    0.0000    constr:    0.0000
     atom:   34    charge:    5.3612    magn:    0.0000    constr:    0.0000
     atom:   35    charge:    5.3612    magn:    0.0000    constr:    0.0000
     atom:   36    charge:    5.3591    magn:    0.0000    constr:    0.0000
     atom:   37    charge:    5.3591    magn:    0.0000    constr:    0.0000
     atom:   38    charge:    5.3612    magn:    0.0000    constr:    0.0000
     atom:   39    charge:    5.3612    magn:    0.0000    constr:    0.0000
     atom:   40    charge:    5.3591    magn:    0.0000    constr:    0.0000

     total cpu time spent up to now is    13824.9 secs

     End of self-consistent calculation

 ------ SPIN UP ------------


          k = 0.0000 0.0000 0.0000 (  9171 PWs)   bands (ev):

   -78.1849 -78.1847 -78.1843 -78.1842 -73.6065 -73.6062 -73.6059 -73.6059
   -44.2497 -44.2471 -44.2451 -44.2435 -44.1161 -44.1161 -44.1151 -44.1150
   -44.1119 -44.1118 -44.1118 -44.1118 -39.8333 -39.8311 -39.8303 -39.8290
   -39.6492 -39.6492 -39.6482 -39.6482 -39.6454 -39.6454 -39.6453 -39.6453
   -11.7476 -11.7475 -11.7384 -11.7374 -11.7370 -11.7366 -11.7361 -11.7361
   -11.7349 -11.7330 -11.7330 -11.7172 -11.7172 -11.7165 -11.7069 -11.7069
   -11.7063 -11.7016 -11.7016 -11.7007 -11.7006 -11.7006 -11.7004 -11.7004
   -11.7002 -11.6995 -11.6993 -11.6993 -11.6991 -11.6873 -11.6864 -11.6860
   -11.6860 -11.6852 -11.6847 -11.6790 -11.6782 -11.6782 -11.6772 -11.6761
    -7.0898  -6.4214  -6.3093  -6.2893  -5.7918  -5.7494  -5.7036  -5.6774
    -5.6774  -5.6486  -5.6439  -5.5066  -5.5066  -5.5063  -5.5063  -5.4818
    -5.3993  -5.3448  -5.3448  -5.3009  -5.2308  -5.1998  -5.1923  -5.1791
     0.8484   0.8484   0.8544   1.2331   1.2393   1.2393   1.8870   2.0279
     5.2117   5.3104   5.3104   5.3656   5.5114   5.6817   5.6878   5.7790
     5.9484   6.3204   6.3884   6.4821   6.5084   6.5257   6.5588   6.5588
     6.9981   6.9992   7.0564   7.3104   7.3104   7.3546   7.3546   7.4157
     7.4775   7.4775   7.5441   7.6601   7.6601   7.6702   7.6702   7.6989
     7.6989   7.6991   7.7114   7.7177   7.7177   7.7228   7.7228   7.7371
     7.7468   7.9969   8.3143   8.4259   8.4259   8.6498   8.6498   8.6514
     9.0758   9.3737   9.3737   9.4021   9.4424   9.4425   9.7287   9.7287
     9.7486   9.7486   9.7549   9.8553   9.9658  10.0278  10.0278  10.0381
    10.0382  10.0900  10.0939  10.1204  10.1427  10.1427  10.1870  10.1986
    10.1986  10.3255  10.3255  10.3319  10.3586  10.7117  10.7117  10.7159
    10.8541  10.8541  10.8917  10.8924  10.8924  10.9092  11.2641  11.2687
    11.2723  11.3827  12.0669  12.1653  12.2523  12.5281  12.9135  12.9229
    12.9231  12.9626  12.9628  12.9958  13.3236  13.3741  13.3743  13.4991
    13.5409  13.6248  13.6487  13.6488  13.7941  13.8020  13.8045  13.9884
    14.6542  14.7388  14.7388  14.7540  14.7721  14.7739  14.7739  15.2849
    15.2856  15.2899  15.3030  15.3030  15.3084  15.3507  16.2629  16.2818
    16.4694  16.4694  16.4816

     occupation numbers 
     1.0000   1.0000   1.0000   1.0000   1.0000   1.0000   1.0000   1.0000
     1.0000   1.0000   1.0000   1.0000   1.0000   1.0000   1.0000   1.0000
     1.0000   1.0000   1.0000   1.0000   1.0000   1.0000   1.0000   1.0000
     1.0000   1.0000   1.0000   1.0000   1.0000   1.0000   1.0000   1.0000
     1.0000   1.0000   1.0000   1.0000   1.0000   1.0000   1.0000   1.0000
     1.0000   1.0000   1.0000   1.0000   1.0000   1.0000   1.0000   1.0000
     1.0000   1.0000   1.0000   1.0000   1.0000   1.0000   1.0000   1.0000
     1.0000   1.0000   1.0000   1.0000   1.0000   1.0000   1.0000   1.0000
     1.0000   1.0000   1.0000   1.0000   1.0000   1.0000   1.0000   1.0000
     1.0000   1.0000   1.0000   1.0000   1.0000   1.0000   1.0000   1.0000
     1.0000   1.0000   1.0000   1.0000   1.0000   1.0000   1.0000   1.0000
     1.0000   1.0000   1.0000   1.0000   1.0000   1.0000   1.0000   1.0000
     1.0000   1.0000   1.0000   1.0000   1.0000   1.0000   1.0000   1.0000
     1.0000   1.0000   1.0000   1.0000   1.0000   1.0000   1.0000   1.0000
     1.0000   1.0000   1.0000   1.0000   1.0000   1.0000   1.0000   1.0000
     1.0000   1.0000   1.0000   1.0000   1.0000   1.0000   1.0000   1.0000
     1.0000   1.0000   1.0000   1.0000   1.0000   1.0000   1.0000   1.0000
     1.0000   1.0000   1.0000   1.0000   1.0000   1.0000   1.0000   1.0000
     1.0000   1.0000   1.0000   1.0000   1.0000   1.0000   1.0000   1.0000
     1.0000   1.0000   1.0000   1.0000   1.0000   1.0000   1.0000   1.0000
     1.0000   1.0000   1.0000   1.0000   1.0000   1.0000   1.0000   1.0000
     1.0000   1.0000   1.0000   1.0000   1.0000   1.0000   1.0000   1.0000
     1.0000   1.0000   1.0000   1.0000   1.0000   1.0000   1.0000   1.0000
     1.0000   1.0000   1.0000   1.0000   1.0000   1.0000   1.0000   1.0000
     1.0000   1.0000   1.0000   1.0000   1.0000   1.0033   0.0858   0.0563
     0.0558  -0.0189  -0.0190  -0.0353  -0.0000  -0.0000  -0.0000  -0.0000
    -0.0000  -0.0000  -0.0000  -0.0000  -0.0000  -0.0000  -0.0000  -0.0000
    -0.0000  -0.0000  -0.0000  -0.0000  -0.0000  -0.0000  -0.0000  -0.0000
    -0.0000  -0.0000  -0.0000  -0.0000  -0.0000  -0.0000  -0.0000  -0.0000
    -0.0000  -0.0000  -0.0000

          k = 0.0000 0.0000 0.2500 (  9158 PWs)   bands (ev):

   -78.1846 -78.1845 -78.1844 -78.1843 -73.6062 -73.6061 -73.6061 -73.6060
   -44.2486 -44.2475 -44.2468 -44.2455 -44.1132 -44.1132 -44.1131 -44.1131
   -44.1130 -44.1129 -44.1127 -44.1126 -39.8334 -39.8317 -39.8315 -39.8298
   -39.6467 -39.6466 -39.6466 -39.6466 -39.6464 -39.6464 -39.6461 -39.6461
   -11.7460 -11.7422 -11.7382 -11.7371 -11.7356 -11.7321 -11.7321 -11.7321
   -11.7316 -11.7282 -11.7282 -11.7190 -11.7190 -11.7121 -11.7108 -11.7061
   -11.7057 -11.7043 -11.7043 -11.7042 -11.7042 -11.7013 -11.7013 -11.7007
   -11.7007 -11.6983 -11.6983 -11.6974 -11.6970 -11.6880 -11.6880 -11.6873
   -11.6872 -11.6868 -11.6867 -11.6834 -11.6834 -11.6817 -11.6788 -11.6775
    -7.0130  -6.5036  -6.3553  -6.2260  -5.9275  -5.8202  -5.7109  -5.6588
    -5.6535  -5.6535  -5.5326  -5.5326  -5.4834  -5.4834  -5.4801  -5.4216
    -5.3690  -5.3690  -5.3565  -5.3136  -5.2628  -5.1985  -5.1933  -5.1928
     0.9080   0.9080   0.9651   1.1846   1.1846   1.3231   1.6732   1.8801
     5.3686   5.4813   5.4813   5.7286   5.7397   5.7437   5.7720   5.8297
     5.9344   6.3288   6.3741   6.4879   6.4966   6.5905   6.5905   6.6002
     6.8183   6.8183   7.0084   7.0875   7.1095   7.1134   7.1902   7.1902
     7.2006   7.2007   7.2130   7.2131   7.3598   7.4574   7.5501   7.7595
     7.7595   7.7883   7.8795   7.8795   7.9004   8.0106   8.0440   8.0440
     8.0826   8.3670   8.3670   8.4326   8.4326   8.5383   8.9682   8.9682
     9.0846   9.0847   9.1117   9.2642   9.4377   9.4377   9.4445   9.4806
     9.5896   9.6376   9.6950   9.6950   9.7083   9.8329   9.9728   9.9728
     9.9766   9.9767  10.1189  10.1189  10.1589  10.1589  10.2044  10.2044
    10.3385  10.3385  10.3983  10.6018  10.6019  10.6430  10.7285  10.7285
    10.7984  10.7984  10.8870  10.9096  10.9771  10.9795  11.2723  11.2770
    11.3136  11.3743  12.3540  12.5103  12.6735  12.7593  12.9629  12.9631
    12.9958  13.0011  13.0445  13.0447  13.1298  13.2596  13.2597  13.5038
    13.5240  13.5447  13.5448  14.0253  14.0277  14.0378  14.4327  14.4566
    14.4686  14.7335  14.8276  14.8277  14.9577  14.9578  15.0764  15.0909
    15.1933  15.1933  15.2204  15.4457  15.4462  15.6385  15.6965  16.0005
    16.0632  16.2822  16.2822

     occupation numbers 
     1.0000   1.0000   1.0000   1.0000   1.0000   1.0000   1.0000   1.0000
     1.0000   1.0000   1.0000   1.0000   1.0000   1.0000   1.0000   1.0000
     1.0000   1.0000   1.0000   1.0000   1.0000   1.0000   1.0000   1.0000
     1.0000   1.0000   1.0000   1.0000   1.0000   1.0000   1.0000   1.0000
     1.0000   1.0000   1.0000   1.0000   1.0000   1.0000   1.0000   1.0000
     1.0000   1.0000   1.0000   1.0000   1.0000   1.0000   1.0000   1.0000
     1.0000   1.0000   1.0000   1.0000   1.0000   1.0000   1.0000   1.0000
     1.0000   1.0000   1.0000   1.0000   1.0000   1.0000   1.0000   1.0000
     1.0000   1.0000   1.0000   1.0000   1.0000   1.0000   1.0000   1.0000
     1.0000   1.0000   1.0000   1.0000   1.0000   1.0000   1.0000   1.0000
     1.0000   1.0000   1.0000   1.0000   1.0000   1.0000   1.0000   1.0000
     1.0000   1.0000   1.0000   1.0000   1.0000   1.0000   1.0000   1.0000
     1.0000   1.0000   1.0000   1.0000   1.0000   1.0000   1.0000   1.0000
     1.0000   1.0000   1.0000   1.0000   1.0000   1.0000   1.0000   1.0000
     1.0000   1.0000   1.0000   1.0000   1.0000   1.0000   1.0000   1.0000
     1.0000   1.0000   1.0000   1.0000   1.0000   1.0000   1.0000   1.0000
     1.0000   1.0000   1.0000   1.0000   1.0000   1.0000   1.0000   1.0000
     1.0000   1.0000   1.0000   1.0000   1.0000   1.0000   1.0000   1.0000
     1.0000   1.0000   1.0000   1.0000   1.0000   1.0000   1.0000   1.0000
     1.0000   1.0000   1.0000   1.0000   1.0000   1.0000   1.0000   1.0000
     1.0000   1.0000   1.0000   1.0000   1.0000   1.0000   1.0000   1.0000
     1.0000   1.0000   1.0000   1.0000   1.0000   1.0000   1.0000   1.0000
     1.0000   1.0000   1.0000   1.0000   1.0000   1.0000   1.0000   1.0000
     1.0000   1.0000   1.0000   1.0000   1.0000   1.0000   1.0000   1.0000
     1.0000   1.0000   1.0000   1.0020   1.0351   0.8943  -0.0192  -0.0193
    -0.0353  -0.0355  -0.0254  -0.0253  -0.0043  -0.0000  -0.0000  -0.0000
    -0.0000  -0.0000  -0.0000  -0.0000  -0.0000  -0.0000  -0.0000  -0.0000
    -0.0000  -0.0000  -0.0000  -0.0000  -0.0000  -0.0000  -0.0000  -0.0000
    -0.0000  -0.0000  -0.0000  -0.0000  -0.0000  -0.0000  -0.0000  -0.0000
    -0.0000  -0.0000  -0.0000

          k = 0.0000 0.0000-0.5000 (  9122 PWs)   bands (ev):

   -78.1845 -78.1845 -78.1843 -78.1843 -73.6061 -73.6061 -73.6060 -73.6060
   -44.2476 -44.2476 -44.2443 -44.2443 -44.1131 -44.1131 -44.1130 -44.1130
   -44.1126 -44.1126 -44.1125 -44.1125 -39.8320 -39.8320 -39.8291 -39.8291
   -39.6465 -39.6465 -39.6465 -39.6465 -39.6461 -39.6461 -39.6460 -39.6460
   -11.7424 -11.7418 -11.7377 -11.7371 -11.7264 -11.7259 -11.7247 -11.7247
   -11.7242 -11.7242 -11.7195 -11.7190 -11.7189 -11.7184 -11.7166 -11.7166
   -11.7160 -11.7160 -11.7016 -11.7016 -11.7010 -11.7010 -11.6971 -11.6966
   -11.6947 -11.6947 -11.6942 -11.6942 -11.6934 -11.6934 -11.6928 -11.6928
   -11.6926 -11.6922 -11.6920 -11.6916 -11.6867 -11.6861 -11.6784 -11.6778
    -6.7990  -6.7986  -6.1750  -6.1741  -6.0535  -6.0530  -5.6275  -5.6262
    -5.5943  -5.5943  -5.5943  -5.5943  -5.4267  -5.4267  -5.4267  -5.4267
    -5.3650  -5.3644  -5.3604  -5.3596  -5.2454  -5.2448  -5.1959  -5.1959
     1.0486   1.0486   1.0491   1.0491   1.2731   1.2736   1.5734   1.5739
     5.6141   5.6142   5.8650   5.8651   5.9822   5.9822   5.9827   5.9827
     6.3083   6.3092   6.3249   6.3256   6.3615   6.3618   6.4908   6.4908
     6.6633   6.6633   6.8801   6.8801   6.8804   6.8804   7.1233   7.1234
     7.1235   7.1235   7.1961   7.1968   7.2330   7.2331   7.3058   7.3066
     7.8583   7.8583   7.8587   7.8587   8.2965   8.2966   8.4356   8.4357
     8.4358   8.4359   8.4664   8.4666   8.6647   8.6648   8.6648   8.6648
     8.7370   8.7372   9.2558   9.2559   9.3266   9.3268   9.5086   9.5087
     9.5090   9.5090   9.5740   9.5740   9.6922   9.6922   9.6929   9.6929
    10.0643  10.0643  10.0643  10.0643  10.2435  10.2435  10.2445  10.2445
    10.4817  10.4817  10.4820  10.4820  10.5065  10.5066  10.6048  10.6049
    10.6052  10.6052  10.8966  10.8966  11.2736  11.2736  11.3551  11.3551
    11.8213  11.8216  11.9565  11.9570  13.0306  13.0307  13.0573  13.0574
    13.0575  13.0576  13.3004  13.3005  13.3006  13.3006  13.5138  13.5138
    13.6266  13.6269  13.6733  13.6736  14.2671  14.2674  14.5580  14.5585
    14.5683  14.5688  14.8680  14.8680  14.9488  14.9488  14.9837  14.9838
    14.9840  14.9840  15.4147  15.4593  15.4594  15.4600  15.4601  15.8501
    15.8501  15.8507  15.8507

     occupation numbers 
     1.0000   1.0000   1.0000   1.0000   1.0000   1.0000   1.0000   1.0000
     1.0000   1.0000   1.0000   1.0000   1.0000   1.0000   1.0000   1.0000
     1.0000   1.0000   1.0000   1.0000   1.0000   1.0000   1.0000   1.0000
     1.0000   1.0000   1.0000   1.0000   1.0000   1.0000   1.0000   1.0000
     1.0000   1.0000   1.0000   1.0000   1.0000   1.0000   1.0000   1.0000
     1.0000   1.0000   1.0000   1.0000   1.0000   1.0000   1.0000   1.0000
     1.0000   1.0000   1.0000   1.0000   1.0000   1.0000   1.0000   1.0000
     1.0000   1.0000   1.0000   1.0000   1.0000   1.0000   1.0000   1.0000
     1.0000   1.0000   1.0000   1.0000   1.0000   1.0000   1.0000   1.0000
     1.0000   1.0000   1.0000   1.0000   1.0000   1.0000   1.0000   1.0000
     1.0000   1.0000   1.0000   1.0000   1.0000   1.0000   1.0000   1.0000
     1.0000   1.0000   1.0000   1.0000   1.0000   1.0000   1.0000   1.0000
     1.0000   1.0000   1.0000   1.0000   1.0000   1.0000   1.0000   1.0000
     1.0000   1.0000   1.0000   1.0000   1.0000   1.0000   1.0000   1.0000
     1.0000   1.0000   1.0000   1.0000   1.0000   1.0000   1.0000   1.0000
     1.0000   1.0000   1.0000   1.0000   1.0000   1.0000   1.0000   1.0000
     1.0000   1.0000   1.0000   1.0000   1.0000   1.0000   1.0000   1.0000
     1.0000   1.0000   1.0000   1.0000   1.0000   1.0000   1.0000   1.0000
     1.0000   1.0000   1.0000   1.0000   1.0000   1.0000   1.0000   1.0000
     1.0000   1.0000   1.0000   1.0000   1.0000   1.0000   1.0000   1.0000
     1.0000   1.0000   1.0000   1.0000   1.0000   1.0000   1.0000   1.0000
     1.0000   1.0000   1.0000   1.0000   1.0000   1.0000   1.0000   1.0000
     1.0000   1.0000   1.0000   1.0000   1.0000   1.0000   1.0000   1.0000
     1.0000   1.0000   1.0000   1.0000   1.0000   1.0000   1.0000   1.0000
     1.0000   1.0000   1.0000   1.0000  -0.0299  -0.0299  -0.0210  -0.0210
    -0.0210  -0.0210  -0.0000  -0.0000  -0.0000  -0.0000  -0.0000  -0.0000
    -0.0000  -0.0000  -0.0000  -0.0000  -0.0000  -0.0000  -0.0000  -0.0000
    -0.0000  -0.0000  -0.0000  -0.0000  -0.0000  -0.0000  -0.0000  -0.0000
    -0.0000  -0.0000  -0.0000  -0.0000  -0.0000  -0.0000  -0.0000  -0.0000
    -0.0000  -0.0000  -0.0000

          k = 0.0000 0.2500 0.2500 (  9182 PWs)   bands (ev):

   -78.1846 -78.1846 -78.1845 -78.1844 -73.6062 -73.6062 -73.6061 -73.6061
   -44.2473 -44.2467 -44.2465 -44.2461 -44.1148 -44.1144 -44.1144 -44.1140
   -44.1137 -44.1135 -44.1135 -44.1131 -39.8316 -39.8314 -39.8313 -39.8303
   -39.6480 -39.6477 -39.6476 -39.6473 -39.6470 -39.6469 -39.6468 -39.6465
   -11.7423 -11.7380 -11.7342 -11.7338 -11.7323 -11.7313 -11.7307 -11.7286
   -11.7276 -11.7273 -11.7237 -11.7206 -11.7132 -11.7127 -11.7101 -11.7092
   -11.7068 -11.7059 -11.7055 -11.7045 -11.7032 -11.7032 -11.7020 -11.7019
   -11.7018 -11.6992 -11.6986 -11.6981 -11.6974 -11.6906 -11.6894 -11.6894
   -11.6888 -11.6886 -11.6879 -11.6871 -11.6850 -11.6836 -11.6829 -11.6803
    -6.9394  -6.4720  -6.4378  -6.2156  -6.0298  -5.8489  -5.8215  -5.6611
    -5.6297  -5.5330  -5.5301  -5.5094  -5.5092  -5.4942  -5.4131  -5.3945
    -5.3936  -5.3466  -5.3435  -5.3133  -5.2582  -5.2146  -5.2134  -5.1981
     0.9679   0.9981   1.0028   1.1578   1.2620   1.2665   1.5313   1.7558
     5.4657   5.5475   5.6778   5.7152   5.8389   5.8529   5.8586   6.0099
     6.1856   6.3762   6.4151   6.4237   6.5387   6.5750   6.5983   6.6356
     6.7406   6.7427   6.8096   6.8162   6.9649   7.0511   7.0520   7.0581
     7.1221   7.1779   7.2629   7.3188   7.3862   7.5609   7.5809   7.5852
     7.6296   7.7027   7.7412   7.7916   7.8045   7.8513   8.0788   8.0846
     8.3882   8.4077   8.4391   8.5501   8.6276   8.6785   8.7200   8.9939
     9.1525   9.1841   9.1933   9.2185   9.2437   9.2782   9.3616   9.3676
     9.4865   9.4975   9.5908   9.7184   9.8168   9.8547   9.8553   9.8866
     9.9501   9.9861  10.0189  10.1454  10.1809  10.1863  10.1927  10.2199
    10.2428  10.2688  10.4070  10.5188  10.5479  10.5841  10.6367  10.6554
    10.7017  10.7575  10.7740  10.7773  11.0086  11.0317  11.5388  11.5838
    11.6659  11.7174  12.5756  12.7161  12.8111  12.9225  12.9714  13.0260
    13.0277  13.1129  13.1578  13.1745  13.2680  13.2713  13.2802  13.3863
    13.4147  13.4289  13.4607  14.0580  14.1993  14.2395  14.3360  14.3980
    14.4116  14.6720  14.6723  14.6881  14.8350  14.9031  15.1484  15.1716
    15.1786  15.2361  15.2466  15.2638  15.3069  15.3234  15.4689  15.5672
    15.5728  15.9577  16.0927

     occupation numbers 
     1.0000   1.0000   1.0000   1.0000   1.0000   1.0000   1.0000   1.0000
     1.0000   1.0000   1.0000   1.0000   1.0000   1.0000   1.0000   1.0000
     1.0000   1.0000   1.0000   1.0000   1.0000   1.0000   1.0000   1.0000
     1.0000   1.0000   1.0000   1.0000   1.0000   1.0000   1.0000   1.0000
     1.0000   1.0000   1.0000   1.0000   1.0000   1.0000   1.0000   1.0000
     1.0000   1.0000   1.0000   1.0000   1.0000   1.0000   1.0000   1.0000
     1.0000   1.0000   1.0000   1.0000   1.0000   1.0000   1.0000   1.0000
     1.0000   1.0000   1.0000   1.0000   1.0000   1.0000   1.0000   1.0000
     1.0000   1.0000   1.0000   1.0000   1.0000   1.0000   1.0000   1.0000
     1.0000   1.0000   1.0000   1.0000   1.0000   1.0000   1.0000   1.0000
     1.0000   1.0000   1.0000   1.0000   1.0000   1.0000   1.0000   1.0000
     1.0000   1.0000   1.0000   1.0000   1.0000   1.0000   1.0000   1.0000
     1.0000   1.0000   1.0000   1.0000   1.0000   1.0000   1.0000   1.0000
     1.0000   1.0000   1.0000   1.0000   1.0000   1.0000   1.0000   1.0000
     1.0000   1.0000   1.0000   1.0000   1.0000   1.0000   1.0000   1.0000
     1.0000   1.0000   1.0000   1.0000   1.0000   1.0000   1.0000   1.0000
     1.0000   1.0000   1.0000   1.0000   1.0000   1.0000   1.0000   1.0000
     1.0000   1.0000   1.0000   1.0000   1.0000   1.0000   1.0000   1.0000
     1.0000   1.0000   1.0000   1.0000   1.0000   1.0000   1.0000   1.0000
     1.0000   1.0000   1.0000   1.0000   1.0000   1.0000   1.0000   1.0000
     1.0000   1.0000   1.0000   1.0000   1.0000   1.0000   1.0000   1.0000
     1.0000   1.0000   1.0000   1.0000   1.0000   1.0000   1.0000   1.0000
     1.0000   1.0000   1.0000   1.0000   1.0000   1.0000   1.0000   1.0000
     1.0000   1.0000   1.0000   1.0000   1.0000   1.0000   1.0000   1.0000
     1.0000   1.0000   1.0110   1.0046   0.6379   0.0574  -0.0264  -0.0312
    -0.0308  -0.0067  -0.0019  -0.0011  -0.0000  -0.0000  -0.0000  -0.0000
    -0.0000  -0.0000  -0.0000  -0.0000  -0.0000  -0.0000  -0.0000  -0.0000
    -0.0000  -0.0000  -0.0000  -0.0000  -0.0000  -0.0000  -0.0000  -0.0000
    -0.0000  -0.0000  -0.0000  -0.0000  -0.0000  -0.0000  -0.0000  -0.0000
    -0.0000  -0.0000  -0.0000

          k = 0.0000 0.2500-0.5000 (  9206 PWs)   bands (ev):

   -78.1846 -78.1846 -78.1846 -78.1846 -73.6062 -73.6062 -73.6062 -73.6062
   -44.2480 -44.2480 -44.2467 -44.2467 -44.1147 -44.1147 -44.1142 -44.1142
   -44.1141 -44.1141 -44.1136 -44.1136 -39.8324 -39.8324 -39.8312 -39.8312
   -39.6479 -39.6479 -39.6475 -39.6475 -39.6474 -39.6474 -39.6469 -39.6469
   -11.7383 -11.7377 -11.7326 -11.7320 -11.7267 -11.7262 -11.7233 -11.7228
   -11.7193 -11.7189 -11.7187 -11.7183 -11.7170 -11.7164 -11.7152 -11.7146
   -11.7132 -11.7126 -11.7070 -11.7064 -11.7003 -11.6998 -11.6996 -11.6991
   -11.6990 -11.6986 -11.6972 -11.6969 -11.6966 -11.6966 -11.6933 -11.6927
   -11.6926 -11.6924 -11.6921 -11.6920 -11.6888 -11.6882 -11.6828 -11.6822
    -6.7285  -6.7281  -6.2855  -6.2849  -6.0463  -6.0457  -5.7295  -5.7286
    -5.5706  -5.5706  -5.4983  -5.4980  -5.4521  -5.4521  -5.4265  -5.4260
    -5.3524  -5.3520  -5.3146  -5.3140  -5.2484  -5.2478  -5.2151  -5.2151
     1.0831   1.0836   1.1163   1.1168   1.2428   1.2433   1.4878   1.4883
     5.7300   5.7300   5.9421   5.9425   5.9445   5.9446   6.1027   6.1030
     6.3181   6.3188   6.3190   6.3195   6.3940   6.3940   6.5284   6.5284
     6.6144   6.6145   6.8683   6.8683   6.9313   6.9316   6.9792   6.9794
     7.0243   7.0244   7.2988   7.2996   7.3585   7.3588   7.4630   7.4631
     7.5718   7.5719   7.5732   7.5735   8.1550   8.1551   8.1617   8.1619
     8.4706   8.4706   8.4968   8.4971   8.5674   8.5675   8.9399   8.9401
     9.0747   9.0748   9.0983   9.0983   9.1297   9.1298   9.3638   9.3641
     9.5989   9.5991   9.7072   9.7079   9.7401   9.7404   9.8510   9.8515
     9.9900   9.9900  10.1092  10.1100  10.1230  10.1230  10.2131  10.2141
    10.3733  10.3737  10.4161  10.4164  10.4720  10.4722  10.4838  10.4841
    10.6296  10.6298  10.7575  10.7576  11.5291  11.5291  11.5410  11.5411
    12.0697  12.0701  12.1297  12.1301  13.0137  13.0138  13.0390  13.0391
    13.0945  13.0945  13.1272  13.1272  13.2188  13.2189  13.4367  13.4367
    13.6563  13.6566  13.9947  13.9951  14.1438  14.1439  14.4106  14.4116
    14.7437  14.7442  14.8880  14.9625  14.9647  14.9777  14.9779  15.0819
    15.0820  15.2024  15.2067  15.4393  15.4393  15.6137  15.6142  15.6526
    15.6532  15.7951  15.7953

     occupation numbers 
     1.0000   1.0000   1.0000   1.0000   1.0000   1.0000   1.0000   1.0000
     1.0000   1.0000   1.0000   1.0000   1.0000   1.0000   1.0000   1.0000
     1.0000   1.0000   1.0000   1.0000   1.0000   1.0000   1.0000   1.0000
     1.0000   1.0000   1.0000   1.0000   1.0000   1.0000   1.0000   1.0000
     1.0000   1.0000   1.0000   1.0000   1.0000   1.0000   1.0000   1.0000
     1.0000   1.0000   1.0000   1.0000   1.0000   1.0000   1.0000   1.0000
     1.0000   1.0000   1.0000   1.0000   1.0000   1.0000   1.0000   1.0000
     1.0000   1.0000   1.0000   1.0000   1.0000   1.0000   1.0000   1.0000
     1.0000   1.0000   1.0000   1.0000   1.0000   1.0000   1.0000   1.0000
     1.0000   1.0000   1.0000   1.0000   1.0000   1.0000   1.0000   1.0000
     1.0000   1.0000   1.0000   1.0000   1.0000   1.0000   1.0000   1.0000
     1.0000   1.0000   1.0000   1.0000   1.0000   1.0000   1.0000   1.0000
     1.0000   1.0000   1.0000   1.0000   1.0000   1.0000   1.0000   1.0000
     1.0000   1.0000   1.0000   1.0000   1.0000   1.0000   1.0000   1.0000
     1.0000   1.0000   1.0000   1.0000   1.0000   1.0000   1.0000   1.0000
     1.0000   1.0000   1.0000   1.0000   1.0000   1.0000   1.0000   1.0000
     1.0000   1.0000   1.0000   1.0000   1.0000   1.0000   1.0000   1.0000
     1.0000   1.0000   1.0000   1.0000   1.0000   1.0000   1.0000   1.0000
     1.0000   1.0000   1.0000   1.0000   1.0000   1.0000   1.0000   1.0000
     1.0000   1.0000   1.0000   1.0000   1.0000   1.0000   1.0000   1.0000
     1.0000   1.0000   1.0000   1.0000   1.0000   1.0000   1.0000   1.0000
     1.0000   1.0000   1.0000   1.0000   1.0000   1.0000   1.0000   1.0000
     1.0000   1.0000   1.0000   1.0000   1.0000   1.0000   1.0000   1.0000
     1.0000   1.0000   1.0000   1.0000   1.0000   1.0000   1.0000   1.0000
     1.0000   1.0000   1.0000   1.0000  -0.0341  -0.0341  -0.0272  -0.0272
    -0.0103  -0.0103  -0.0046  -0.0046  -0.0002  -0.0002  -0.0000  -0.0000
    -0.0000  -0.0000  -0.0000  -0.0000  -0.0000  -0.0000  -0.0000  -0.0000
    -0.0000  -0.0000  -0.0000  -0.0000  -0.0000  -0.0000  -0.0000  -0.0000
    -0.0000  -0.0000  -0.0000  -0.0000  -0.0000  -0.0000  -0.0000  -0.0000
    -0.0000  -0.0000  -0.0000

          k = 0.0000-0.5000-0.5000 (  9220 PWs)   bands (ev):

   -78.1846 -78.1846 -78.1846 -78.1846 -73.6062 -73.6062 -73.6062 -73.6062
   -44.2476 -44.2476 -44.2476 -44.2476 -44.1149 -44.1149 -44.1149 -44.1149
   -44.1137 -44.1137 -44.1137 -44.1137 -39.8320 -39.8320 -39.8320 -39.8320
   -39.6481 -39.6481 -39.6481 -39.6481 -39.6471 -39.6471 -39.6471 -39.6471
   -11.7314 -11.7313 -11.7308 -11.7308 -11.7201 -11.7201 -11.7197 -11.7196
   -11.7176 -11.7175 -11.7171 -11.7171 -11.7131 -11.7130 -11.7126 -11.7125
   -11.7073 -11.7071 -11.7068 -11.7067 -11.7061 -11.7061 -11.7055 -11.7055
   -11.7051 -11.7051 -11.7046 -11.7046 -11.6943 -11.6942 -11.6937 -11.6937
   -11.6930 -11.6929 -11.6924 -11.6923 -11.6896 -11.6896 -11.6891 -11.6891
    -6.5351  -6.5350  -6.5346  -6.5346  -5.9093  -5.9092  -5.9085  -5.9085
    -5.5122  -5.5122  -5.5122  -5.5122  -5.4296  -5.4296  -5.4290  -5.4290
    -5.2930  -5.2930  -5.2927  -5.2927  -5.2568  -5.2568  -5.2564  -5.2564
     1.1651   1.1651   1.1656   1.1656   1.2931   1.2931   1.2936   1.2936
     5.9536   5.9536   5.9537   5.9537   6.1314   6.1314   6.1316   6.1316
     6.2574   6.2574   6.2579   6.2580   6.4006   6.4006   6.4007   6.4007
     6.6382   6.6382   6.6382   6.6382   7.1578   7.1579   7.1582   7.1582
     7.2820   7.2820   7.2824   7.2824   7.3315   7.3315   7.3317   7.3317
     7.4838   7.4838   7.4840   7.4840   7.8219   7.8219   7.8222   7.8222
     8.5659   8.5659   8.5660   8.5660   8.7368   8.7368   8.7372   8.7372
     8.8230   8.8231   8.8231   8.8231   9.5533   9.5533   9.5534   9.5534
     9.6418   9.6418   9.6423   9.6423  10.0471  10.0472  10.0478  10.0479
    10.0596  10.0596  10.0599  10.0599  10.1132  10.1132  10.1136  10.1137
    10.1771  10.1771  10.1771  10.1772  10.5200  10.5200  10.5202  10.5202
    10.5566  10.5566  10.5568  10.5568  11.6080  11.6080  11.6082  11.6082
    12.3837  12.3837  12.3840  12.3840  12.9931  12.9931  12.9932  12.9932
    13.1175  13.1175  13.1176  13.1176  13.2224  13.2224  13.2224  13.2224
    13.8355  13.8355  13.8357  13.8357  14.5891  14.5891  14.5893  14.5894
    14.6022  14.6023  14.6028  14.6028  14.9573  14.9575  14.9586  14.9569
    15.1900  15.1901  15.1906  15.1906  15.2772  15.2773  15.2954  15.2955
    15.8328  15.8329  15.8330

     occupation numbers 
     1.0000   1.0000   1.0000   1.0000   1.0000   1.0000   1.0000   1.0000
     1.0000   1.0000   1.0000   1.0000   1.0000   1.0000   1.0000   1.0000
     1.0000   1.0000   1.0000   1.0000   1.0000   1.0000   1.0000   1.0000
     1.0000   1.0000   1.0000   1.0000   1.0000   1.0000   1.0000   1.0000
     1.0000   1.0000   1.0000   1.0000   1.0000   1.0000   1.0000   1.0000
     1.0000   1.0000   1.0000   1.0000   1.0000   1.0000   1.0000   1.0000
     1.0000   1.0000   1.0000   1.0000   1.0000   1.0000   1.0000   1.0000
     1.0000   1.0000   1.0000   1.0000   1.0000   1.0000   1.0000   1.0000
     1.0000   1.0000   1.0000   1.0000   1.0000   1.0000   1.0000   1.0000
     1.0000   1.0000   1.0000   1.0000   1.0000   1.0000   1.0000   1.0000
     1.0000   1.0000   1.0000   1.0000   1.0000   1.0000   1.0000   1.0000
     1.0000   1.0000   1.0000   1.0000   1.0000   1.0000   1.0000   1.0000
     1.0000   1.0000   1.0000   1.0000   1.0000   1.0000   1.0000   1.0000
     1.0000   1.0000   1.0000   1.0000   1.0000   1.0000   1.0000   1.0000
     1.0000   1.0000   1.0000   1.0000   1.0000   1.0000   1.0000   1.0000
     1.0000   1.0000   1.0000   1.0000   1.0000   1.0000   1.0000   1.0000
     1.0000   1.0000   1.0000   1.0000   1.0000   1.0000   1.0000   1.0000
     1.0000   1.0000   1.0000   1.0000   1.0000   1.0000   1.0000   1.0000
     1.0000   1.0000   1.0000   1.0000   1.0000   1.0000   1.0000   1.0000
     1.0000   1.0000   1.0000   1.0000   1.0000   1.0000   1.0000   1.0000
     1.0000   1.0000   1.0000   1.0000   1.0000   1.0000   1.0000   1.0000
     1.0000   1.0000   1.0000   1.0000   1.0000   1.0000   1.0000   1.0000
     1.0000   1.0000   1.0000   1.0000   1.0000   1.0000   1.0000   1.0000
     1.0000   1.0000   1.0000   1.0000   1.0000   1.0000   1.0000   1.0000
     1.0000   1.0000   1.0000   1.0000  -0.0350  -0.0350  -0.0350  -0.0350
    -0.0060  -0.0060  -0.0060  -0.0060  -0.0002  -0.0002  -0.0002  -0.0002
    -0.0000  -0.0000  -0.0000  -0.0000  -0.0000  -0.0000  -0.0000  -0.0000
    -0.0000  -0.0000  -0.0000  -0.0000  -0.0000  -0.0000  -0.0000  -0.0000
    -0.0000  -0.0000  -0.0000  -0.0000  -0.0000  -0.0000  -0.0000  -0.0000
    -0.0000  -0.0000  -0.0000

          k = 0.2500 0.2500 0.2500 (  9228 PWs)   bands (ev):

   -78.1848 -78.1847 -78.1846 -78.1846 -73.6063 -73.6063 -73.6062 -73.6062
   -44.2479 -44.2472 -44.2472 -44.2471 -44.1163 -44.1153 -44.1151 -44.1147
   -44.1146 -44.1144 -44.1137 -44.1135 -39.8321 -39.8320 -39.8319 -39.8312
   -39.6494 -39.6484 -39.6483 -39.6479 -39.6478 -39.6476 -39.6470 -39.6468
   -11.7364 -11.7363 -11.7297 -11.7294 -11.7290 -11.7279 -11.7269 -11.7265
   -11.7262 -11.7244 -11.7238 -11.7151 -11.7148 -11.7143 -11.7084 -11.7077
   -11.7072 -11.7045 -11.7040 -11.7035 -11.7033 -11.7032 -11.7030 -11.7026
   -11.7026 -11.7022 -11.7022 -11.7020 -11.7019 -11.6918 -11.6913 -11.6905
   -11.6903 -11.6898 -11.6894 -11.6886 -11.6881 -11.6876 -11.6865 -11.6852
    -6.8670  -6.4490  -6.3736  -6.3378  -6.0090  -5.9883  -5.9286  -5.6946
    -5.5572  -5.5562  -5.5256  -5.4998  -5.4428  -5.4306  -5.4215  -5.3668
    -5.3603  -5.3454  -5.3396  -5.3158  -5.2525  -5.2375  -5.2245  -5.2051
     1.0362   1.0418   1.0437   1.2263   1.2296   1.2323   1.4352   1.6533
     5.6008   5.6671   5.7119   5.7316   5.9114   5.9407   6.0060   6.1195
     6.3634   6.3901   6.4031   6.4837   6.5512   6.5736   6.5776   6.6424
     6.6889   6.7271   6.7571   6.9123   6.9278   6.9668   6.9791   6.9969
     7.0015   7.0170   7.1383   7.1487   7.2039   7.3001   7.5037   7.5491
     7.6268   7.6535   7.8326   7.8473   7.9317   7.9442   8.0684   8.1144
     8.3165   8.3326   8.3441   8.6754   8.6871   8.7044   8.7743   8.8799
     8.9539   9.0887   9.1653   9.2738   9.3524   9.3635   9.3869   9.4022
     9.4386   9.6089   9.6224   9.6578   9.7268   9.8422   9.8953   9.8975
     9.9169   9.9585   9.9598  10.0703  10.0885  10.1916  10.2016  10.2322
    10.2438  10.3205  10.3564  10.5041  10.5363  10.5516  10.5624  10.5777
    10.6358  10.6397  10.6481  10.6838  11.1648  11.2034  11.8994  11.9011
    11.9415  11.9703  12.6961  12.7671  12.8914  12.8986  12.9009  12.9520
    12.9632  13.1846  13.2184  13.2545  13.2622  13.2642  13.3053  13.3223
    13.3425  13.3644  13.4153  13.9785  14.0320  14.1331  14.1514  14.2923
    14.7614  14.8706  14.9143  14.9221  14.9478  14.9727  15.0187  15.0479
    15.0603  15.0713  15.0963  15.1095  15.1320  15.5380  15.5474  15.5606
    15.8940  15.9069  15.9562

     occupation numbers 
     1.0000   1.0000   1.0000   1.0000   1.0000   1.0000   1.0000   1.0000
     1.0000   1.0000   1.0000   1.0000   1.0000   1.0000   1.0000   1.0000
     1.0000   1.0000   1.0000   1.0000   1.0000   1.0000   1.0000   1.0000
     1.0000   1.0000   1.0000   1.0000   1.0000   1.0000   1.0000   1.0000
     1.0000   1.0000   1.0000   1.0000   1.0000   1.0000   1.0000   1.0000
     1.0000   1.0000   1.0000   1.0000   1.0000   1.0000   1.0000   1.0000
     1.0000   1.0000   1.0000   1.0000   1.0000   1.0000   1.0000   1.0000
     1.0000   1.0000   1.0000   1.0000   1.0000   1.0000   1.0000   1.0000
     1.0000   1.0000   1.0000   1.0000   1.0000   1.0000   1.0000   1.0000
     1.0000   1.0000   1.0000   1.0000   1.0000   1.0000   1.0000   1.0000
     1.0000   1.0000   1.0000   1.0000   1.0000   1.0000   1.0000   1.0000
     1.0000   1.0000   1.0000   1.0000   1.0000   1.0000   1.0000   1.0000
     1.0000   1.0000   1.0000   1.0000   1.0000   1.0000   1.0000   1.0000
     1.0000   1.0000   1.0000   1.0000   1.0000   1.0000   1.0000   1.0000
     1.0000   1.0000   1.0000   1.0000   1.0000   1.0000   1.0000   1.0000
     1.0000   1.0000   1.0000   1.0000   1.0000   1.0000   1.0000   1.0000
     1.0000   1.0000   1.0000   1.0000   1.0000   1.0000   1.0000   1.0000
     1.0000   1.0000   1.0000   1.0000   1.0000   1.0000   1.0000   1.0000
     1.0000   1.0000   1.0000   1.0000   1.0000   1.0000   1.0000   1.0000
     1.0000   1.0000   1.0000   1.0000   1.0000   1.0000   1.0000   1.0000
     1.0000   1.0000   1.0000   1.0000   1.0000   1.0000   1.0000   1.0000
     1.0000   1.0000   1.0000   1.0000   1.0000   1.0000   1.0000   1.0000
     1.0000   1.0000   1.0000   1.0000   1.0000   1.0000   1.0000   1.0000
     1.0000   1.0000   1.0000   1.0000   1.0000   1.0000   1.0000   1.0000
     1.0000   1.0000   1.0262   0.8639   0.1739   0.1423   0.1330  -0.0058
    -0.0194  -0.0008  -0.0002  -0.0001  -0.0000  -0.0000  -0.0000  -0.0000
    -0.0000  -0.0000  -0.0000  -0.0000  -0.0000  -0.0000  -0.0000  -0.0000
    -0.0000  -0.0000  -0.0000  -0.0000  -0.0000  -0.0000  -0.0000  -0.0000
    -0.0000  -0.0000  -0.0000  -0.0000  -0.0000  -0.0000  -0.0000  -0.0000
    -0.0000  -0.0000  -0.0000

          k = 0.2500 0.2500-0.5000 (  9230 PWs)   bands (ev):

   -78.1847 -78.1847 -78.1846 -78.1846 -73.6063 -73.6063 -73.6062 -73.6062
   -44.2477 -44.2477 -44.2473 -44.2472 -44.1152 -44.1152 -44.1150 -44.1150
   -44.1144 -44.1144 -44.1136 -44.1136 -39.8321 -39.8321 -39.8317 -39.8317
   -39.6483 -39.6483 -39.6482 -39.6482 -39.6476 -39.6476 -39.6470 -39.6470
   -11.7334 -11.7328 -11.7281 -11.7276 -11.7215 -11.7212 -11.7211 -11.7210
   -11.7208 -11.7205 -11.7149 -11.7144 -11.7143 -11.7138 -11.7138 -11.7134
   -11.7132 -11.7128 -11.7051 -11.7045 -11.7041 -11.7035 -11.7004 -11.7004
   -11.7001 -11.7000 -11.6995 -11.6992 -11.6973 -11.6967 -11.6967 -11.6961
   -11.6952 -11.6950 -11.6948 -11.6946 -11.6913 -11.6907 -11.6878 -11.6872
    -6.6593  -6.6589  -6.2639  -6.2632  -6.1620  -6.1616  -5.8480  -5.8473
    -5.5026  -5.5022  -5.4576  -5.4575  -5.4467  -5.4460  -5.3944  -5.3944
    -5.3442  -5.3439  -5.3084  -5.3078  -5.2529  -5.2524  -5.2310  -5.2310
     1.1369   1.1374   1.1384   1.1389   1.2275   1.2279   1.4250   1.4255
     5.8871   5.8872   6.0362   6.0362   6.0709   6.0709   6.0918   6.0922
     6.2835   6.2842   6.3361   6.3369   6.4096   6.4097   6.4958   6.4959
     6.5658   6.5661   6.7553   6.7554   6.9757   6.9758   6.9999   7.0002
     7.0011   7.0012   7.1749   7.1751   7.1894   7.1895   7.3714   7.3718
     7.6018   7.6020   7.7734   7.7735   8.0155   8.0155   8.1194   8.1195
     8.3496   8.3498   8.4023   8.4023   8.4175   8.4175   8.7905   8.7906
     9.2659   9.2659   9.2998   9.2998   9.3604   9.3607   9.5150   9.5152
     9.5227   9.5230   9.7290   9.7293   9.8112   9.8113   9.8225   9.8232
     9.9318   9.9324   9.9341   9.9346  10.2181  10.2190  10.2245  10.2245
    10.3359  10.3362  10.3811  10.3814  10.3835  10.3838  10.4798  10.4801
    10.5730  10.5731  10.6484  10.6485  11.9204  11.9204  11.9238  11.9239
    12.1187  12.1191  12.1656  12.1660  12.9181  12.9182  12.9963  12.9964
    13.0689  13.0690  13.0925  13.0926  13.1035  13.1038  13.3299  13.3302
    13.6336  13.6339  13.7229  13.7231  13.8480  13.8481  14.4897  14.8316
    14.8321  14.9093  14.9116  14.9124  14.9133  14.9813  14.9817  15.4373
    15.4373  15.4486  15.4489  15.4493  15.4496  15.4861  15.4868  15.7226
    15.7232  15.7361  15.7367

     occupation numbers 
     1.0000   1.0000   1.0000   1.0000   1.0000   1.0000   1.0000   1.0000
     1.0000   1.0000   1.0000   1.0000   1.0000   1.0000   1.0000   1.0000
     1.0000   1.0000   1.0000   1.0000   1.0000   1.0000   1.0000   1.0000
     1.0000   1.0000   1.0000   1.0000   1.0000   1.0000   1.0000   1.0000
     1.0000   1.0000   1.0000   1.0000   1.0000   1.0000   1.0000   1.0000
     1.0000   1.0000   1.0000   1.0000   1.0000   1.0000   1.0000   1.0000
     1.0000   1.0000   1.0000   1.0000   1.0000   1.0000   1.0000   1.0000
     1.0000   1.0000   1.0000   1.0000   1.0000   1.0000   1.0000   1.0000
     1.0000   1.0000   1.0000   1.0000   1.0000   1.0000   1.0000   1.0000
     1.0000   1.0000   1.0000   1.0000   1.0000   1.0000   1.0000   1.0000
     1.0000   1.0000   1.0000   1.0000   1.0000   1.0000   1.0000   1.0000
     1.0000   1.0000   1.0000   1.0000   1.0000   1.0000   1.0000   1.0000
     1.0000   1.0000   1.0000   1.0000   1.0000   1.0000   1.0000   1.0000
     1.0000   1.0000   1.0000   1.0000   1.0000   1.0000   1.0000   1.0000
     1.0000   1.0000   1.0000   1.0000   1.0000   1.0000   1.0000   1.0000
     1.0000   1.0000   1.0000   1.0000   1.0000   1.0000   1.0000   1.0000
     1.0000   1.0000   1.0000   1.0000   1.0000   1.0000   1.0000   1.0000
     1.0000   1.0000   1.0000   1.0000   1.0000   1.0000   1.0000   1.0000
     1.0000   1.0000   1.0000   1.0000   1.0000   1.0000   1.0000   1.0000
     1.0000   1.0000   1.0000   1.0000   1.0000   1.0000   1.0000   1.0000
     1.0000   1.0000   1.0000   1.0000   1.0000   1.0000   1.0000   1.0000
     1.0000   1.0000   1.0000   1.0000   1.0000   1.0000   1.0000   1.0000
     1.0000   1.0000   1.0000   1.0000   1.0000   1.0000   1.0000   1.0000
     1.0000   1.0000   1.0000   1.0000   1.0000   1.0000   1.0000   1.0000
     1.0000   1.0000   1.0000   1.0000   0.0708   0.0704  -0.0353  -0.0353
    -0.0173  -0.0173  -0.0108  -0.0108  -0.0084  -0.0084  -0.0000  -0.0000
    -0.0000  -0.0000  -0.0000  -0.0000  -0.0000  -0.0000  -0.0000  -0.0000
    -0.0000  -0.0000  -0.0000  -0.0000  -0.0000  -0.0000  -0.0000  -0.0000
    -0.0000  -0.0000  -0.0000  -0.0000  -0.0000  -0.0000  -0.0000  -0.0000
    -0.0000  -0.0000  -0.0000

          k = 0.2500-0.5000-0.5000 (  9184 PWs)   bands (ev):

   -78.1845 -78.1845 -78.1845 -78.1845 -73.6061 -73.6061 -73.6061 -73.6061
   -44.2468 -44.2468 -44.2468 -44.2468 -44.1142 -44.1142 -44.1142 -44.1142
   -44.1131 -44.1131 -44.1131 -44.1131 -39.8313 -39.8313 -39.8313 -39.8313
   -39.6475 -39.6475 -39.6475 -39.6475 -39.6465 -39.6465 -39.6465 -39.6465
   -11.7256 -11.7256 -11.7251 -11.7250 -11.7170 -11.7169 -11.7164 -11.7164
   -11.7147 -11.7147 -11.7143 -11.7142 -11.7122 -11.7121 -11.7117 -11.7116
   -11.7073 -11.7072 -11.7069 -11.7068 -11.7058 -11.7058 -11.7057 -11.7057
   -11.7052 -11.7052 -11.7052 -11.7052 -11.6978 -11.6978 -11.6973 -11.6973
   -11.6963 -11.6962 -11.6958 -11.6957 -11.6950 -11.6949 -11.6945 -11.6944
    -6.4709  -6.4709  -6.4704  -6.4704  -6.0478  -6.0478  -6.0473  -6.0472
    -5.4627  -5.4626  -5.4621  -5.4620  -5.3931  -5.3931  -5.3929  -5.3929
    -5.2963  -5.2963  -5.2960  -5.2960  -5.2664  -5.2664  -5.2660  -5.2660
     1.1857   1.1858   1.1862   1.1862   1.2773   1.2773   1.2778   1.2778
     6.1505   6.1505   6.1505   6.1505   6.1700   6.1700   6.1702   6.1702
     6.2653   6.2653   6.2653   6.2653   6.4311   6.4311   6.4311   6.4311
     6.5553   6.5553   6.5553   6.5553   6.8875   6.8875   6.8876   6.8876
     7.1265   7.1266   7.1268   7.1268   7.3375   7.3375   7.3376   7.3376
     7.6272   7.6272   7.6273   7.6273   7.8610   7.8611   7.8611   7.8612
     8.3052   8.3052   8.3052   8.3052   8.6336   8.6336   8.6337   8.6337
     9.2356   9.2357   9.2360   9.2360   9.6203   9.6203   9.6206   9.6206
     9.7762   9.7762   9.7764   9.7764   9.8414   9.8415   9.8418   9.8418
    10.0492  10.0493  10.0496  10.0497  10.1459  10.1460  10.1464  10.1464
    10.2744  10.2744  10.2747  10.2747  10.4585  10.4585  10.4588  10.4588
    10.4712  10.4712  10.4713  10.4713  12.0398  12.0398  12.0399  12.0399
    12.3939  12.3939  12.3942  12.3942  12.8500  12.8501  12.8502  12.8503
    13.0607  13.0607  13.0607  13.0609  13.1282  13.1283  13.1283  13.1283
    13.5289  13.5289  13.5290  13.5291  13.9933  13.9934  13.9935  13.9947
    14.9606  14.9607  14.9608  15.2174  15.2215  15.2217  15.2220  15.3881
    15.3898  15.3899  15.3900  15.4835  15.4836  15.4840  15.4841  15.7657
    15.7664  15.7664  15.7665

     occupation numbers 
     1.0000   1.0000   1.0000   1.0000   1.0000   1.0000   1.0000   1.0000
     1.0000   1.0000   1.0000   1.0000   1.0000   1.0000   1.0000   1.0000
     1.0000   1.0000   1.0000   1.0000   1.0000   1.0000   1.0000   1.0000
     1.0000   1.0000   1.0000   1.0000   1.0000   1.0000   1.0000   1.0000
     1.0000   1.0000   1.0000   1.0000   1.0000   1.0000   1.0000   1.0000
     1.0000   1.0000   1.0000   1.0000   1.0000   1.0000   1.0000   1.0000
     1.0000   1.0000   1.0000   1.0000   1.0000   1.0000   1.0000   1.0000
     1.0000   1.0000   1.0000   1.0000   1.0000   1.0000   1.0000   1.0000
     1.0000   1.0000   1.0000   1.0000   1.0000   1.0000   1.0000   1.0000
     1.0000   1.0000   1.0000   1.0000   1.0000   1.0000   1.0000   1.0000
     1.0000   1.0000   1.0000   1.0000   1.0000   1.0000   1.0000   1.0000
     1.0000   1.0000   1.0000   1.0000   1.0000   1.0000   1.0000   1.0000
     1.0000   1.0000   1.0000   1.0000   1.0000   1.0000   1.0000   1.0000
     1.0000   1.0000   1.0000   1.0000   1.0000   1.0000   1.0000   1.0000
     1.0000   1.0000   1.0000   1.0000   1.0000   1.0000   1.0000   1.0000
     1.0000   1.0000   1.0000   1.0000   1.0000   1.0000   1.0000   1.0000
     1.0000   1.0000   1.0000   1.0000   1.0000   1.0000   1.0000   1.0000
     1.0000   1.0000   1.0000   1.0000   1.0000   1.0000   1.0000   1.0000
     1.0000   1.0000   1.0000   1.0000   1.0000   1.0000   1.0000   1.0000
     1.0000   1.0000   1.0000   1.0000   1.0000   1.0000   1.0000   1.0000
     1.0000   1.0000   1.0000   1.0000   1.0000   1.0000   1.0000   1.0000
     1.0000   1.0000   1.0000   1.0000   1.0000   1.0000   1.0000   1.0000
     1.0000   1.0000   1.0000   1.0000   1.0000   1.0000   1.0000   1.0000
     1.0000   1.0000   1.0000   1.0000   1.0000   1.0000   1.0000   1.0000
     1.0000   1.0000   1.0000   1.0000   0.3988   0.3983   0.3978   0.3973
    -0.0199  -0.0199  -0.0199  -0.0199  -0.0045  -0.0045  -0.0045  -0.0045
    -0.0000  -0.0000  -0.0000  -0.0000  -0.0000  -0.0000  -0.0000  -0.0000
    -0.0000  -0.0000  -0.0000  -0.0000  -0.0000  -0.0000  -0.0000  -0.0000
    -0.0000  -0.0000  -0.0000  -0.0000  -0.0000  -0.0000  -0.0000  -0.0000
    -0.0000  -0.0000  -0.0000

          k =-0.5000-0.5000-0.5000 (  9328 PWs)   bands (ev):

   -78.1849 -78.1849 -78.1849 -78.1849 -73.6064 -73.6064 -73.6064 -73.6064
   -44.2489 -44.2489 -44.2489 -44.2489 -44.1167 -44.1167 -44.1166 -44.1166
   -44.1159 -44.1159 -44.1158 -44.1158 -39.8331 -39.8331 -39.8331 -39.8331
   -39.6496 -39.6496 -39.6496 -39.6496 -39.6489 -39.6489 -39.6489 -39.6489
   -11.7139 -11.7139 -11.7134 -11.7134 -11.7126 -11.7125 -11.7124 -11.7124
   -11.7122 -11.7122 -11.7121 -11.7120 -11.7109 -11.7109 -11.7106 -11.7105
   -11.7070 -11.7070 -11.7068 -11.7068 -11.7066 -11.7066 -11.7064 -11.7064
   -11.7043 -11.7043 -11.7041 -11.7041 -11.7034 -11.7034 -11.7031 -11.7031
   -11.7031 -11.7030 -11.7027 -11.7027 -11.7025 -11.7025 -11.7022 -11.7022
    -6.3331  -6.3331  -6.3325  -6.3325  -6.2397  -6.2397  -6.2394  -6.2394
    -5.4471  -5.4471  -5.4463  -5.4463  -5.3216  -5.3216  -5.3216  -5.3216
    -5.3068  -5.3068  -5.3068  -5.3068  -5.2904  -5.2904  -5.2897  -5.2897
     1.2322   1.2322   1.2326   1.2327   1.2353   1.2353   1.2358   1.2358
     6.1743   6.1744   6.1748   6.1748   6.3011   6.3011   6.3016   6.3016
     6.3782   6.3782   6.3784   6.3784   6.5049   6.5049   6.5052   6.5052
     6.5649   6.5650   6.5651   6.5651   6.6886   6.6886   6.6888   6.6888
     6.9198   6.9198   6.9198   6.9198   7.2809   7.2809   7.2812   7.2812
     7.6714   7.6714   7.6715   7.6715   7.6782   7.6782   7.6785   7.6785
     8.2966   8.2966   8.2966   8.2966   8.5777   8.5777   8.5779   8.5779
     9.4647   9.4647   9.4650   9.4651   9.7017   9.7018   9.7024   9.7024
     9.8229   9.8229   9.8229   9.8229   9.8902   9.8902   9.8906   9.8906
    10.1952  10.1952  10.1952  10.1952  10.2378  10.2378  10.2382  10.2382
    10.2689  10.2689  10.2689  10.2689  10.2985  10.2985  10.2991  10.2991
    10.3074  10.3074  10.3078  10.3078  12.3469  12.3469  12.3472  12.3472
    12.4852  12.4852  12.4852  12.4852  12.6344  12.6344  12.6346  12.6346
    12.8171  12.8171  12.8171  12.8171  13.0800  13.0800  13.0801  13.0802
    13.5583  13.5584  13.5586  13.5587  13.6616  13.6617  13.6617  13.6620
    14.9445  14.9455  15.0167  15.5245  15.5245  15.5252  15.5253  15.5831
    15.5831  15.5831  15.5831  15.5981  15.5981  15.5983  15.5983  15.6161
    15.6162  15.6168  15.6168

     occupation numbers 
     1.0000   1.0000   1.0000   1.0000   1.0000   1.0000   1.0000   1.0000
     1.0000   1.0000   1.0000   1.0000   1.0000   1.0000   1.0000   1.0000
     1.0000   1.0000   1.0000   1.0000   1.0000   1.0000   1.0000   1.0000
     1.0000   1.0000   1.0000   1.0000   1.0000   1.0000   1.0000   1.0000
     1.0000   1.0000   1.0000   1.0000   1.0000   1.0000   1.0000   1.0000
     1.0000   1.0000   1.0000   1.0000   1.0000   1.0000   1.0000   1.0000
     1.0000   1.0000   1.0000   1.0000   1.0000   1.0000   1.0000   1.0000
     1.0000   1.0000   1.0000   1.0000   1.0000   1.0000   1.0000   1.0000
     1.0000   1.0000   1.0000   1.0000   1.0000   1.0000   1.0000   1.0000
     1.0000   1.0000   1.0000   1.0000   1.0000   1.0000   1.0000   1.0000
     1.0000   1.0000   1.0000   1.0000   1.0000   1.0000   1.0000   1.0000
     1.0000   1.0000   1.0000   1.0000   1.0000   1.0000   1.0000   1.0000
     1.0000   1.0000   1.0000   1.0000   1.0000   1.0000   1.0000   1.0000
     1.0000   1.0000   1.0000   1.0000   1.0000   1.0000   1.0000   1.0000
     1.0000   1.0000   1.0000   1.0000   1.0000   1.0000   1.0000   1.0000
     1.0000   1.0000   1.0000   1.0000   1.0000   1.0000   1.0000   1.0000
     1.0000   1.0000   1.0000   1.0000   1.0000   1.0000   1.0000   1.0000
     1.0000   1.0000   1.0000   1.0000   1.0000   1.0000   1.0000   1.0000
     1.0000   1.0000   1.0000   1.0000   1.0000   1.0000   1.0000   1.0000
     1.0000   1.0000   1.0000   1.0000   1.0000   1.0000   1.0000   1.0000
     1.0000   1.0000   1.0000   1.0000   1.0000   1.0000   1.0000   1.0000
     1.0000   1.0000   1.0000   1.0000   1.0000   1.0000   1.0000   1.0000
     1.0000   1.0000   1.0000   1.0000   1.0000   1.0000   1.0000   1.0000
     1.0000   1.0000   1.0000   1.0000   1.0000   1.0000   1.0000   1.0000
     1.0009   1.0009   1.0009   1.0009   1.0292   1.0292   1.0293   1.0293
     0.6021   0.6021   0.6017   0.6016  -0.0140  -0.0140  -0.0140  -0.0140
    -0.0000  -0.0000  -0.0000  -0.0000  -0.0000  -0.0000  -0.0000  -0.0000
    -0.0000  -0.0000  -0.0000  -0.0000  -0.0000  -0.0000  -0.0000  -0.0000
    -0.0000  -0.0000  -0.0000  -0.0000  -0.0000  -0.0000  -0.0000  -0.0000
    -0.0000  -0.0000  -0.0000

          k = 0.2500 0.0000 0.0000 (  9158 PWs)   bands (ev):

   -78.1847 -78.1844 -78.1844 -78.1843 -73.6063 -73.6061 -73.6060 -73.6060
   -44.2468 -44.2463 -44.2449 -44.2446 -44.1161 -44.1147 -44.1144 -44.1141
   -44.1136 -44.1129 -44.1120 -44.1120 -39.8308 -39.8303 -39.8303 -39.8300
   -39.6492 -39.6479 -39.6477 -39.6474 -39.6469 -39.6464 -39.6456 -39.6455
   -11.7457 -11.7416 -11.7377 -11.7365 -11.7336 -11.7332 -11.7326 -11.7320
   -11.7318 -11.7300 -11.7281 -11.7191 -11.7184 -11.7129 -11.7114 -11.7071
   -11.7059 -11.7057 -11.7043 -11.7040 -11.7033 -11.7003 -11.7002 -11.6995
   -11.6995 -11.6994 -11.6985 -11.6983 -11.6972 -11.6893 -11.6885 -11.6880
   -11.6870 -11.6858 -11.6851 -11.6841 -11.6833 -11.6828 -11.6780 -11.6767
    -7.0151  -6.5399  -6.2780  -6.2450  -5.8965  -5.8319  -5.7732  -5.7071
    -5.6535  -5.6044  -5.5464  -5.5329  -5.4831  -5.4807  -5.4218  -5.4187
    -5.3914  -5.3739  -5.3690  -5.3028  -5.2384  -5.2125  -5.2102  -5.1847
     0.9070   0.9132   0.9594   1.1792   1.1855   1.3284   1.6712   1.8811
     5.3148   5.4803   5.5045   5.5372   5.7087   5.7269   5.7600   5.8947
     6.0249   6.3704   6.4280   6.4283   6.5484   6.6007   6.6306   6.7042
     6.7662   6.7771   6.9544   6.9625   6.9720   7.0876   7.1741   7.3582
     7.3636   7.3972   7.4434   7.4762   7.4797   7.5243   7.5654   7.5788
     7.6093   7.6405   7.7457   7.8734   7.8792   7.9043   7.9657   8.1017
     8.1962   8.2172   8.2854   8.3334   8.3400   8.4529   8.9670   9.1921
     9.2070   9.3211   9.3855   9.3866   9.4340   9.4438   9.4763   9.4927
     9.5144   9.5304   9.5579   9.6866   9.6895   9.7827   9.9177   9.9329
     9.9576  10.0423  10.0861  10.1121  10.1238  10.1716  10.2118  10.2284
[...]
    14.7614  14.8708  14.9143  14.9222  14.9480  14.9726  15.0188  15.0479
    15.0603  15.0714  15.0966  15.1100  15.1324  15.5384  15.5474  15.5607
    15.8940  15.9070  15.9557

     occupation numbers 
     1.0000   1.0000   1.0000   1.0000   1.0000   1.0000   1.0000   1.0000
     1.0000   1.0000   1.0000   1.0000   1.0000   1.0000   1.0000   1.0000
     1.0000   1.0000   1.0000   1.0000   1.0000   1.0000   1.0000   1.0000
     1.0000   1.0000   1.0000   1.0000   1.0000   1.0000   1.0000   1.0000
     1.0000   1.0000   1.0000   1.0000   1.0000   1.0000   1.0000   1.0000
     1.0000   1.0000   1.0000   1.0000   1.0000   1.0000   1.0000   1.0000
     1.0000   1.0000   1.0000   1.0000   1.0000   1.0000   1.0000   1.0000
     1.0000   1.0000   1.0000   1.0000   1.0000   1.0000   1.0000   1.0000
     1.0000   1.0000   1.0000   1.0000   1.0000   1.0000   1.0000   1.0000
     1.0000   1.0000   1.0000   1.0000   1.0000   1.0000   1.0000   1.0000
     1.0000   1.0000   1.0000   1.0000   1.0000   1.0000   1.0000   1.0000
     1.0000   1.0000   1.0000   1.0000   1.0000   1.0000   1.0000   1.0000
     1.0000   1.0000   1.0000   1.0000   1.0000   1.0000   1.0000   1.0000
     1.0000   1.0000   1.0000   1.0000   1.0000   1.0000   1.0000   1.0000
     1.0000   1.0000   1.0000   1.0000   1.0000   1.0000   1.0000   1.0000
     1.0000   1.0000   1.0000   1.0000   1.0000   1.0000   1.0000   1.0000
     1.0000   1.0000   1.0000   1.0000   1.0000   1.0000   1.0000   1.0000
     1.0000   1.0000   1.0000   1.0000   1.0000   1.0000   1.0000   1.0000
     1.0000   1.0000   1.0000   1.0000   1.0000   1.0000   1.0000   1.0000
     1.0000   1.0000   1.0000   1.0000   1.0000   1.0000   1.0000   1.0000
     1.0000   1.0000   1.0000   1.0000   1.0000   1.0000   1.0000   1.0000
     1.0000   1.0000   1.0000   1.0000   1.0000   1.0000   1.0000   1.0000
     1.0000   1.0000   1.0000   1.0000   1.0000   1.0000   1.0000   1.0000
     1.0000   1.0000   1.0000   1.0000   1.0000   1.0000   1.0000   1.0000
     1.0000   1.0000   1.0261   0.8627   0.1731   0.1417   0.1319  -0.0063
    -0.0197  -0.0008  -0.0002  -0.0001  -0.0000  -0.0000  -0.0000  -0.0000
    -0.0000  -0.0000  -0.0000  -0.0000  -0.0000  -0.0000  -0.0000  -0.0000
    -0.0000  -0.0000  -0.0000  -0.0000  -0.0000  -0.0000  -0.0000  -0.0000
    -0.0000  -0.0000  -0.0000  -0.0000  -0.0000  -0.0000  -0.0000  -0.0000
    -0.0000  -0.0000  -0.0000

          k =-0.5000-0.2500 0.2500 (  9230 PWs)   bands (ev):

   -78.1838 -78.1838 -78.1838 -78.1838 -73.6061 -73.6061 -73.6061 -73.6061
   -44.2460 -44.2460 -44.2456 -44.2456 -44.1148 -44.1148 -44.1147 -44.1145
   -44.1138 -44.1138 -44.1136 -44.1133 -39.8321 -39.8321 -39.8316 -39.8316
   -39.6481 -39.6481 -39.6481 -39.6481 -39.6473 -39.6473 -39.6470 -39.6470
   -11.7328 -11.7327 -11.7255 -11.7254 -11.7224 -11.7222 -11.7214 -11.7213
   -11.7208 -11.7207 -11.7155 -11.7155 -11.7149 -11.7149 -11.7143 -11.7143
   -11.7133 -11.7133 -11.7029 -11.7028 -11.7028 -11.7027 -11.7009 -11.7008
   -11.7003 -11.7003 -11.6998 -11.6998 -11.6979 -11.6979 -11.6966 -11.6966
   -11.6959 -11.6958 -11.6950 -11.6950 -11.6901 -11.6900 -11.6867 -11.6866
    -6.6684  -6.6684  -6.2127  -6.2126  -6.2002  -6.2001  -5.8322  -5.8321
    -5.5645  -5.5645  -5.4739  -5.4738  -5.3970  -5.3970  -5.3840  -5.3840
    -5.3341  -5.3340  -5.3052  -5.3052  -5.2687  -5.2686  -5.2265  -5.2265
     1.1353   1.1354   1.1403   1.1403   1.2252   1.2252   1.4277   1.4277
     5.7094   5.7094   5.9590   5.9590   6.0289   6.0289   6.2021   6.2021
     6.2097   6.2097   6.4130   6.4130   6.5327   6.5327   6.6235   6.6235
     6.7582   6.7582   6.7927   6.7928   6.7997   6.7997   6.9957   6.9957
     7.0225   7.0225   7.0976   7.0977   7.2707   7.2708   7.4223   7.4223
     7.5693   7.5694   7.7486   7.7486   8.0352   8.0352   8.0705   8.0705
     8.1802   8.1803   8.4442   8.4442   8.5214   8.5215   8.8248   8.8248
     9.0652   9.0652   9.1545   9.1545   9.4667   9.4668   9.4916   9.4916
     9.5730   9.5730   9.7490   9.7491   9.8549   9.8550   9.9125   9.9125
     9.9172   9.9172  10.0782  10.0783  10.1931  10.1931  10.2228  10.2229
    10.2997  10.2997  10.3247  10.3247  10.4394  10.4394  10.4405  10.4405
    10.5107  10.5108  10.6258  10.6258  11.2287  11.2287  12.1012  12.1012
    12.2401  12.2402  12.8470  12.8470  12.9497  12.9497  12.9701  12.9701
    12.9915  12.9916  13.1582  13.1583  13.2797  13.2797  13.2815  13.2816
    13.6291  13.6291  13.6908  13.6909  13.8404  13.8405  14.1801  14.1802
    14.5038  14.5043  14.8685  14.8685  14.8878  14.8879  15.1247  15.1251
    15.1359  15.1373  15.4201  15.4210  15.4265  15.4549  15.4551  15.5170
    15.7188  15.7453  15.7454

     occupation numbers 
     1.0000   1.0000   1.0000   1.0000   1.0000   1.0000   1.0000   1.0000
     1.0000   1.0000   1.0000   1.0000   1.0000   1.0000   1.0000   1.0000
     1.0000   1.0000   1.0000   1.0000   1.0000   1.0000   1.0000   1.0000
     1.0000   1.0000   1.0000   1.0000   1.0000   1.0000   1.0000   1.0000
     1.0000   1.0000   1.0000   1.0000   1.0000   1.0000   1.0000   1.0000
     1.0000   1.0000   1.0000   1.0000   1.0000   1.0000   1.0000   1.0000
     1.0000   1.0000   1.0000   1.0000   1.0000   1.0000   1.0000   1.0000
     1.0000   1.0000   1.0000   1.0000   1.0000   1.0000   1.0000   1.0000
     1.0000   1.0000   1.0000   1.0000   1.0000   1.0000   1.0000   1.0000
     1.0000   1.0000   1.0000   1.0000   1.0000   1.0000   1.0000   1.0000
     1.0000   1.0000   1.0000   1.0000   1.0000   1.0000   1.0000   1.0000
     1.0000   1.0000   1.0000   1.0000   1.0000   1.0000   1.0000   1.0000
     1.0000   1.0000   1.0000   1.0000   1.0000   1.0000   1.0000   1.0000
     1.0000   1.0000   1.0000   1.0000   1.0000   1.0000   1.0000   1.0000
     1.0000   1.0000   1.0000   1.0000   1.0000   1.0000   1.0000   1.0000
     1.0000   1.0000   1.0000   1.0000   1.0000   1.0000   1.0000   1.0000
     1.0000   1.0000   1.0000   1.0000   1.0000   1.0000   1.0000   1.0000
     1.0000   1.0000   1.0000   1.0000   1.0000   1.0000   1.0000   1.0000
     1.0000   1.0000   1.0000   1.0000   1.0000   1.0000   1.0000   1.0000
     1.0000   1.0000   1.0000   1.0000   1.0000   1.0000   1.0000   1.0000
     1.0000   1.0000   1.0000   1.0000   1.0000   1.0000   1.0000   1.0000
     1.0000   1.0000   1.0000   1.0000   1.0000   1.0000   1.0000   1.0000
     1.0000   1.0000   1.0000   1.0000   1.0000   1.0000   1.0000   1.0000
     1.0000   1.0000   1.0000   1.0000   1.0000   1.0000   1.0000   1.0000
     1.0000   1.0000   0.4173   0.4173  -0.0025  -0.0025  -0.0255  -0.0255
    -0.0348  -0.0348  -0.0019  -0.0019  -0.0000  -0.0000  -0.0000  -0.0000
    -0.0000  -0.0000  -0.0000  -0.0000  -0.0000  -0.0000  -0.0000  -0.0000
    -0.0000  -0.0000  -0.0000  -0.0000  -0.0000  -0.0000  -0.0000  -0.0000
    -0.0000  -0.0000  -0.0000  -0.0000  -0.0000  -0.0000  -0.0000  -0.0000
    -0.0000  -0.0000  -0.0000

          k =-0.2500 0.2500 0.5000 (  9230 PWs)   bands (ev):

   -78.1838 -78.1838 -78.1838 -78.1838 -73.6062 -73.6062 -73.6061 -73.6061
   -44.2463 -44.2463 -44.2458 -44.2458 -44.1147 -44.1147 -44.1145 -44.1145
   -44.1137 -44.1137 -44.1133 -44.1133 -39.8323 -39.8323 -39.8319 -39.8319
   -39.6480 -39.6480 -39.6480 -39.6480 -39.6473 -39.6473 -39.6468 -39.6468
   -11.7334 -11.7328 -11.7281 -11.7276 -11.7215 -11.7212 -11.7211 -11.7210
   -11.7208 -11.7205 -11.7149 -11.7144 -11.7143 -11.7138 -11.7138 -11.7134
   -11.7132 -11.7128 -11.7051 -11.7045 -11.7041 -11.7035 -11.7004 -11.7004
   -11.7001 -11.7000 -11.6995 -11.6992 -11.6973 -11.6967 -11.6967 -11.6961
   -11.6952 -11.6950 -11.6948 -11.6946 -11.6912 -11.6907 -11.6878 -11.6872
    -6.6593  -6.6589  -6.2641  -6.2636  -6.1617  -6.1612  -5.8480  -5.8473
    -5.5027  -5.5023  -5.4574  -5.4572  -5.4469  -5.4463  -5.3943  -5.3943
    -5.3442  -5.3440  -5.3080  -5.3071  -5.2525  -5.2518  -5.2309  -5.2309
     1.1370   1.1375   1.1385   1.1390   1.2275   1.2280   1.4251   1.4256
     5.8873   5.8874   6.0364   6.0364   6.0711   6.0711   6.0919   6.0923
     6.2835   6.2842   6.3361   6.3368   6.4097   6.4098   6.4960   6.4961
     6.5661   6.5663   6.7555   6.7557   6.9758   6.9759   7.0001   7.0004
     7.0013   7.0015   7.1752   7.1755   7.1897   7.1898   7.3718   7.3723
     7.6021   7.6024   7.7738   7.7739   8.0158   8.0159   8.1197   8.1199
     8.3501   8.3503   8.4026   8.4026   8.4177   8.4177   8.7909   8.7910
     9.2660   9.2660   9.3002   9.3002   9.3610   9.3614   9.5152   9.5154
     9.5230   9.5233   9.7292   9.7295   9.8113   9.8114   9.8224   9.8230
     9.9318   9.9323   9.9341   9.9345  10.2180  10.2188  10.2247  10.2247
    10.3361  10.3366  10.3816  10.3820  10.3839  10.3842  10.4801  10.4804
    10.5733  10.5733  10.6485  10.6486  11.9206  11.9206  11.9240  11.9240
    12.1190  12.1193  12.1659  12.1662  12.9183  12.9184  12.9965  12.9967
    13.0692  13.0693  13.0928  13.0929  13.1036  13.1041  13.3301  13.3305
    13.6338  13.6340  13.7230  13.7232  13.8481  13.8482  14.4897  14.4900
    14.8316  14.8320  14.9114  14.9115  14.9136  14.9171  14.9818  14.9818
    15.4374  15.4374  15.4488  15.4492  15.4498  15.4862  15.4868  15.7233
    15.7233  15.7361  15.7368

     occupation numbers 
     1.0000   1.0000   1.0000   1.0000   1.0000   1.0000   1.0000   1.0000
     1.0000   1.0000   1.0000   1.0000   1.0000   1.0000   1.0000   1.0000
     1.0000   1.0000   1.0000   1.0000   1.0000   1.0000   1.0000   1.0000
     1.0000   1.0000   1.0000   1.0000   1.0000   1.0000   1.0000   1.0000
     1.0000   1.0000   1.0000   1.0000   1.0000   1.0000   1.0000   1.0000
     1.0000   1.0000   1.0000   1.0000   1.0000   1.0000   1.0000   1.0000
     1.0000   1.0000   1.0000   1.0000   1.0000   1.0000   1.0000   1.0000
     1.0000   1.0000   1.0000   1.0000   1.0000   1.0000   1.0000   1.0000
     1.0000   1.0000   1.0000   1.0000   1.0000   1.0000   1.0000   1.0000
     1.0000   1.0000   1.0000   1.0000   1.0000   1.0000   1.0000   1.0000
     1.0000   1.0000   1.0000   1.0000   1.0000   1.0000   1.0000   1.0000
     1.0000   1.0000   1.0000   1.0000   1.0000   1.0000   1.0000   1.0000
     1.0000   1.0000   1.0000   1.0000   1.0000   1.0000   1.0000   1.0000
     1.0000   1.0000   1.0000   1.0000   1.0000   1.0000   1.0000   1.0000
     1.0000   1.0000   1.0000   1.0000   1.0000   1.0000   1.0000   1.0000
     1.0000   1.0000   1.0000   1.0000   1.0000   1.0000   1.0000   1.0000
     1.0000   1.0000   1.0000   1.0000   1.0000   1.0000   1.0000   1.0000
     1.0000   1.0000   1.0000   1.0000   1.0000   1.0000   1.0000   1.0000
     1.0000   1.0000   1.0000   1.0000   1.0000   1.0000   1.0000   1.0000
     1.0000   1.0000   1.0000   1.0000   1.0000   1.0000   1.0000   1.0000
     1.0000   1.0000   1.0000   1.0000   1.0000   1.0000   1.0000   1.0000
     1.0000   1.0000   1.0000   1.0000   1.0000   1.0000   1.0000   1.0000
     1.0000   1.0000   1.0000   1.0000   1.0000   1.0000   1.0000   1.0000
     1.0000   1.0000   1.0000   1.0000   1.0000   1.0000   1.0000   1.0000
     1.0000   1.0000   1.0000   1.0000   0.0702   0.0699  -0.0353  -0.0353
    -0.0172  -0.0172  -0.0107  -0.0107  -0.0084  -0.0083  -0.0000  -0.0000
    -0.0000  -0.0000  -0.0000  -0.0000  -0.0000  -0.0000  -0.0000  -0.0000
    -0.0000  -0.0000  -0.0000  -0.0000  -0.0000  -0.0000  -0.0000  -0.0000
    -0.0000  -0.0000  -0.0000  -0.0000  -0.0000  -0.0000  -0.0000  -0.0000
    -0.0000  -0.0000  -0.0000

          k =-0.5000 0.5000 0.2500 (  9184 PWs)   bands (ev):

   -78.1837 -78.1837 -78.1836 -78.1836 -73.6061 -73.6061 -73.6060 -73.6060
   -44.2455 -44.2455 -44.2435 -44.2435 -44.1150 -44.1147 -44.1137 -44.1134
   -44.1133 -44.1130 -44.1130 -44.1127 -39.8312 -39.8312 -39.8302 -39.8302
   -39.6483 -39.6483 -39.6471 -39.6470 -39.6466 -39.6466 -39.6464 -39.6464
   -11.7255 -11.7255 -11.7242 -11.7242 -11.7150 -11.7150 -11.7146 -11.7146
   -11.7145 -11.7144 -11.7141 -11.7141 -11.7133 -11.7133 -11.7132 -11.7131
   -11.7081 -11.7081 -11.7073 -11.7073 -11.7072 -11.7072 -11.7071 -11.7071
   -11.7062 -11.7062 -11.7058 -11.7058 -11.6966 -11.6966 -11.6962 -11.6962
   -11.6960 -11.6960 -11.6956 -11.6955 -11.6952 -11.6952 -11.6935 -11.6935
    -6.5227  -6.5227  -6.4196  -6.4196  -6.0722  -6.0722  -6.0006  -6.0006
    -5.5624  -5.5624  -5.4010  -5.4010  -5.3929  -5.3929  -5.3490  -5.3490
    -5.3346  -5.3346  -5.2936  -5.2936  -5.2784  -5.2784  -5.2432  -5.2432
     1.1769   1.1769   1.1901   1.1901   1.2768   1.2768   1.2832   1.2832
     5.7448   5.7448   5.9953   5.9954   6.2441   6.2441   6.3545   6.3545
     6.3581   6.3581   6.4284   6.4284   6.4550   6.4550   6.6397   6.6398
     6.6866   6.6866   6.7690   6.7690   6.7919   6.7919   6.8577   6.8577
     6.8626   6.8626   6.8969   6.8969   7.3507   7.3507   7.4432   7.4433
     7.6707   7.6708   7.7125   7.7126   7.8586   7.8587   7.9375   7.9375
     8.0894   8.0895   8.4140   8.4140   8.4300   8.4301   8.7915   8.7916
     9.0297   9.0297   9.4502   9.4502   9.5772   9.5773   9.6539   9.6540
     9.6718   9.6718   9.6945   9.6947   9.8067   9.8067   9.9892   9.9892
     9.9974   9.9975  10.1562  10.1562  10.1665  10.1665  10.1810  10.1810
    10.2817  10.2818  10.2909  10.2910  10.3738  10.3738  10.3844  10.3844
    10.4325  10.4326  10.5192  10.5193  11.3185  11.3185  12.4649  12.4649
    12.5201  12.5201  12.8019  12.8019  12.8319  12.8319  12.9503  12.9503
    12.9682  12.9682  13.0969  13.0969  13.2250  13.2252  13.2687  13.2691
    13.4512  13.4513  13.5318  13.5319  13.9484  13.9490  14.0596  14.0597
    14.1480  14.1492  15.0412  15.2332  15.2332  15.2484  15.2484  15.3260
    15.3284  15.4097  15.4097  15.4888  15.4888  15.4979  15.4980  15.7082
    15.7084  15.7969  15.7975

     occupation numbers 
     1.0000   1.0000   1.0000   1.0000   1.0000   1.0000   1.0000   1.0000
     1.0000   1.0000   1.0000   1.0000   1.0000   1.0000   1.0000   1.0000
     1.0000   1.0000   1.0000   1.0000   1.0000   1.0000   1.0000   1.0000
     1.0000   1.0000   1.0000   1.0000   1.0000   1.0000   1.0000   1.0000
     1.0000   1.0000   1.0000   1.0000   1.0000   1.0000   1.0000   1.0000
     1.0000   1.0000   1.0000   1.0000   1.0000   1.0000   1.0000   1.0000
     1.0000   1.0000   1.0000   1.0000   1.0000   1.0000   1.0000   1.0000
     1.0000   1.0000   1.0000   1.0000   1.0000   1.0000   1.0000   1.0000
     1.0000   1.0000   1.0000   1.0000   1.0000   1.0000   1.0000   1.0000
     1.0000   1.0000   1.0000   1.0000   1.0000   1.0000   1.0000   1.0000
     1.0000   1.0000   1.0000   1.0000   1.0000   1.0000   1.0000   1.0000
     1.0000   1.0000   1.0000   1.0000   1.0000   1.0000   1.0000   1.0000
     1.0000   1.0000   1.0000   1.0000   1.0000   1.0000   1.0000   1.0000
     1.0000   1.0000   1.0000   1.0000   1.0000   1.0000   1.0000   1.0000
     1.0000   1.0000   1.0000   1.0000   1.0000   1.0000   1.0000   1.0000
     1.0000   1.0000   1.0000   1.0000   1.0000   1.0000   1.0000   1.0000
     1.0000   1.0000   1.0000   1.0000   1.0000   1.0000   1.0000   1.0000
     1.0000   1.0000   1.0000   1.0000   1.0000   1.0000   1.0000   1.0000
     1.0000   1.0000   1.0000   1.0000   1.0000   1.0000   1.0000   1.0000
     1.0000   1.0000   1.0000   1.0000   1.0000   1.0000   1.0000   1.0000
     1.0000   1.0000   1.0000   1.0000   1.0000   1.0000   1.0000   1.0000
     1.0000   1.0000   1.0000   1.0000   1.0000   1.0000   1.0000   1.0000
     1.0000   1.0000   1.0000   1.0000   1.0000   1.0000   1.0000   1.0000
     1.0000   1.0000   1.0000   1.0000   1.0000   1.0000   1.0004   1.0004
     1.0027   1.0027   0.6916   0.6915   0.5106   0.5106  -0.0033  -0.0034
    -0.0239  -0.0240  -0.0098  -0.0098  -0.0002  -0.0002  -0.0000  -0.0000
    -0.0000  -0.0000  -0.0000  -0.0000  -0.0000  -0.0000  -0.0000  -0.0000
    -0.0000  -0.0000  -0.0000  -0.0000  -0.0000  -0.0000  -0.0000  -0.0000
    -0.0000  -0.0000  -0.0000  -0.0000  -0.0000  -0.0000  -0.0000  -0.0000
    -0.0000  -0.0000  -0.0000

     the Fermi energy is    12.8336 ev

!    total energy              =   -4259.23632256 Ry
     estimated scf accuracy    <       0.00000330 Ry
     smearing contrib. (-TS)   =       0.00042033 Ry
     internal energy E=F+TS    =   -4259.23674289 Ry

     The total energy is F=E-TS. E is the sum of the following terms:
     one-electron contribution =   -1696.02846557 Ry
     hartree contribution      =    1099.37088343 Ry
     xc contribution           =    -924.97538625 Ry
     ewald contribution        =   -2737.60377451 Ry

     total magnetization       =     0.00 Bohr mag/cell
     absolute magnetization    =    31.68 Bohr mag/cell

     convergence has been achieved in  14 iterations

     Writing output data file /home/aldair1809/Documentos/QE/4BFO/temp/bifeo3.save/

     init_run     :    258.52s CPU    260.72s WALL (       1 calls)
     electrons    :  13415.24s CPU  13563.76s WALL (       1 calls)

     Called by init_run:
     wfcinit      :    255.74s CPU    257.34s WALL (       1 calls)
     wfcinit:atom :      0.32s CPU      0.32s WALL (      42 calls)
     wfcinit:wfcr :    252.67s CPU    254.24s WALL (      42 calls)
     potinit      :      0.33s CPU      0.38s WALL (       1 calls)
     hinit0       :      0.43s CPU      0.48s WALL (       1 calls)

     Called by electrons:
     c_bands      :  12529.90s CPU  12637.09s WALL (      14 calls)
     sum_band     :    848.24s CPU    879.32s WALL (      14 calls)
     v_of_rho     :      4.08s CPU      5.04s WALL (      15 calls)
     v_h          :      0.16s CPU      0.17s WALL (      15 calls)
     v_xc         :      3.92s CPU      4.87s WALL (      15 calls)
     newd         :     33.98s CPU     41.78s WALL (      15 calls)
     mix_rho      :      0.75s CPU      0.87s WALL (      14 calls)

     Called by c_bands:
     init_us_2    :     15.88s CPU     15.97s WALL (    1218 calls)
     ccgdiagg     :   9711.59s CPU   9800.87s WALL (     588 calls)
     wfcrot       :   3057.41s CPU   3076.54s WALL (     588 calls)

     Called by sum_band:
     sum_band:wei :      0.27s CPU      0.27s WALL (      14 calls)
     sum_band:loo :    791.08s CPU    800.03s WALL (      14 calls)
     sum_band:buf :      2.94s CPU      2.95s WALL (     588 calls)
     sum_band:ini :      7.41s CPU      7.42s WALL (     588 calls)
     sum_band:cal :    625.49s CPU    626.57s WALL (     588 calls)
     sum_band:bec :      4.56s CPU      4.57s WALL (     588 calls)
     addusdens    :     56.15s CPU     73.46s WALL (      14 calls)
     addusd:skk   :      0.18s CPU      0.29s WALL (      56 calls)
     addusd:dgemm :     36.29s CPU     49.86s WALL (     112 calls)
     addusd:qvan2 :     19.28s CPU     19.98s WALL (     112 calls)

     Called by *cgdiagg:
     h_psi        :   5595.78s CPU   5674.23s WALL (  326954 calls)
     s_psi        :   3855.05s CPU   3865.44s WALL (  653320 calls)

     Called by h_psi:
     h_psi:calbec :   2249.52s CPU   2276.56s WALL (  326954 calls)
     vloc_psi     :   1026.38s CPU   1073.92s WALL (  326954 calls)
     add_vuspsi   :   2309.57s CPU   2314.14s WALL (  326954 calls)
     hs_1psi      :   5577.63s CPU   5643.97s WALL (  326366 calls)
     s_1psi       :   3152.91s CPU   3168.95s WALL (  326366 calls)

     General routines
     calbec       :   4433.28s CPU   4475.22s WALL (  653908 calls)
     fft          :      2.91s CPU      4.53s WALL (     369 calls)
     ffts         :      0.09s CPU      0.10s WALL (      58 calls)
     fftw         :   1041.01s CPU   1092.44s WALL ( 1070380 calls)
     interpolate  :      0.33s CPU      0.35s WALL (      30 calls)

     Parallel routines
     fft_scatt_xy :    117.46s CPU    125.09s WALL ( 1070807 calls)
     fft_scatt_yz :    151.84s CPU    164.19s WALL ( 1070807 calls)

     PWSCF        :      3h47m CPU      3h50m WALL


   This run was terminated on:  23:25:30  24Oct2024            

=------------------------------------------------------------------------------=
   JOB DONE.
=------------------------------------------------------------------------------=
