
     Program PWSCF v.6.7MaX starts on 24Oct2024 at 16: 9:23 

     This program is part of the open-source Quantum ESPRESSO suite
     for quantum simulation of materials; please cite
         "P. Giannozzi et al., J. Phys.:Condens. Matter 21 395502 (2009);
         "P. Giannozzi et al., J. Phys.:Condens. Matter 29 465901 (2017);
          URL http://www.quantum-espresso.org", 
     in publications or presentations arising from this work. More details at
     http://www.quantum-espresso.org/quote

     Parallel version (MPI), running on     4 processors

     MPI processes distributed on     1 nodes
     R & G space division:  proc/nbgrp/npool/nimage =       4
     Waiting for input...
     Reading input from standard input

     Current dimensions of program PWSCF are:
     Max number of different atomic species (ntypx) = 10
     Max number of k-points (npk) =  40000
     Max angular momentum in pseudopotentials (lmaxx) =  3
     Message from routine iosys:
     wrong startingpot: use default (1)

     Subspace diagonalization in iterative solution of the eigenvalue problem:
     one sub-group per band group will be used
     scalapack distributed-memory algorithm (size of sub-group:  2*  2 procs)

     Found symmetry operation: I + ( -0.5000 -0.5000  0.0000)
     This is a supercell, fractional translations are disabled

     Parallelization info
     --------------------
     sticks:   dense  smooth     PW     G-vecs:    dense   smooth      PW
     Min        1060     529    131                52086    18381    2292
     Max        1064     531    133                52087    18382    2293
     Sum        4249    2121    529               208345    73525    9171



     bravais-lattice index     =            1
     lattice parameter (alat)  =      14.9137  a.u.
     unit-cell volume          =    3317.0944 (a.u.)^3
     number of atoms/cell      =           40
     number of atomic types    =            4
     number of electrons       =       392.00
     number of Kohn-Sham states=          235
     kinetic-energy cutoff     =      30.0000  Ry
     charge density cutoff     =     240.0000  Ry
     scf convergence threshold =      1.0E-05
     mixing beta               =       0.4000
     number of iterations used =            8  plain     mixing
     Exchange-correlation=  SLA  PW   PBX  PBC
                           (   1   4   3   4   0   0   0)

     celldm(1)=  14.913719  celldm(2)=   0.000000  celldm(3)=   0.000000
     celldm(4)=   0.000000  celldm(5)=   0.000000  celldm(6)=   0.000000

     crystal axes: (cart. coord. in units of alat)
               a(1) = (   1.000000   0.000000   0.000000 )  
               a(2) = (   0.000000   1.000000   0.000000 )  
               a(3) = (   0.000000   0.000000   1.000000 )  

     reciprocal axes: (cart. coord. in units 2 pi/alat)
               b(1) = (  1.000000  0.000000  0.000000 )  
               b(2) = (  0.000000  1.000000  0.000000 )  
               b(3) = (  0.000000  0.000000  1.000000 )  


     PseudoPot. # 1 for O  read from file:
     /home/aldair1809/Programas/QE/q-e-qe-7.3/pseudo/o_pbe_v1.2.uspp.F.UPF
     MD5 check sum: 734c27235a0248c51dbae37a1fbe46ec
     Pseudo is Ultrasoft + core correction, Zval =  6.0
     Generated by new atomic code, or converted to UPF format
     Using radial grid of  737 points,  5 beta functions with: 
                l(1) =   0
                l(2) =   0
                l(3) =   1
                l(4) =   1
                l(5) =   2
     Q(r) pseudized with  8 coefficients,  rinner =    0.900   0.900   0.900
                                                       0.900   0.900

     PseudoPot. # 2 for Bi read from file:
     /home/aldair1809/Programas/QE/q-e-qe-7.3/pseudo/bi_pbe_v1.uspp.F.UPF
     MD5 check sum: cceb9f28ec65b6d7ff33140f5b0b1758
     Pseudo is Ultrasoft + core correction, Zval = 15.0
     Generated by new atomic code, or converted to UPF format
     Using radial grid of  899 points,  6 beta functions with: 
                l(1) =   0
                l(2) =   0
                l(3) =   1
                l(4) =   1
                l(5) =   2
                l(6) =   2
     Q(r) pseudized with  6 coefficients,  rinner =    1.000   1.000   1.000
                                                       1.000   1.000

     PseudoPot. # 3 for Fe read from file:
     /home/aldair1809/Programas/QE/q-e-qe-7.3/pseudo/fe_pbe_v1.5.uspp.F.UPF
     MD5 check sum: a130daea23fe5165f5d574ae7f82ed95
     Pseudo is Ultrasoft + core correction, Zval = 16.0
     Generated by new atomic code, or converted to UPF format
     Using radial grid of  861 points,  6 beta functions with: 
                l(1) =   0
                l(2) =   0
                l(3) =   1
                l(4) =   1
                l(5) =   2
                l(6) =   2
     Q(r) pseudized with  8 coefficients,  rinner =    1.000   1.000   1.000
                                                       1.000   1.000

     PseudoPot. # 4 for Fe read from file:
     /home/aldair1809/Programas/QE/q-e-qe-7.3/pseudo/fe_pbe_v1.5.uspp.F.UPF
     MD5 check sum: a130daea23fe5165f5d574ae7f82ed95
     Pseudo is Ultrasoft + core correction, Zval = 16.0
     Generated by new atomic code, or converted to UPF format
     Using radial grid of  861 points,  6 beta functions with: 
                l(1) =   0
                l(2) =   0
                l(3) =   1
                l(4) =   1
                l(5) =   2
                l(6) =   2
     Q(r) pseudized with  8 coefficients,  rinner =    1.000   1.000   1.000
                                                       1.000   1.000

     atomic species   valence    mass     pseudopotential
        O              6.00    15.99940     O ( 1.00)
        Bi            15.00   208.98040     Bi( 1.00)
        Fe1           16.00    55.84500     Fe( 1.00)
        Fe2           16.00    55.84500     Fe( 1.00)

     Starting magnetic structure 
     atomic species   magnetization
        O            0.000
        Bi           0.000
        Fe1         -0.800
        Fe2          0.800

      8 Sym. Ops., with inversion, found


                                    s                        frac. trans.

      isym =  1     identity                                     

 cryst.   s( 1) = (     1          0          0      )
                  (     0          1          0      )
                  (     0          0          1      )

 cart.    s( 1) = (  1.0000000  0.0000000  0.0000000 )
                  (  0.0000000  1.0000000  0.0000000 )
                  (  0.0000000  0.0000000  1.0000000 )


      isym =  2     180 deg rotation - cart. axis [0,0,1]        

 cryst.   s( 2) = (    -1          0          0      )
                  (     0         -1          0      )
                  (     0          0          1      )

 cart.    s( 2) = ( -1.0000000  0.0000000  0.0000000 )
                  (  0.0000000 -1.0000000  0.0000000 )
                  (  0.0000000  0.0000000  1.0000000 )


      isym =  3     180 deg rotation - cart. axis [1,1,0]        

 cryst.   s( 3) = (     0          1          0      )
                  (     1          0          0      )
                  (     0          0         -1      )

 cart.    s( 3) = (  0.0000000  1.0000000  0.0000000 )
                  (  1.0000000  0.0000000  0.0000000 )
                  (  0.0000000  0.0000000 -1.0000000 )


      isym =  4     180 deg rotation - cart. axis [1,-1,0]       

 cryst.   s( 4) = (     0         -1          0      )
                  (    -1          0          0      )
                  (     0          0         -1      )

 cart.    s( 4) = (  0.0000000 -1.0000000  0.0000000 )
                  ( -1.0000000  0.0000000  0.0000000 )
                  (  0.0000000  0.0000000 -1.0000000 )


      isym =  5     inversion                                    

 cryst.   s( 5) = (    -1          0          0      )
                  (     0         -1          0      )
                  (     0          0         -1      )

 cart.    s( 5) = ( -1.0000000  0.0000000  0.0000000 )
                  (  0.0000000 -1.0000000  0.0000000 )
                  (  0.0000000  0.0000000 -1.0000000 )


      isym =  6     inv. 180 deg rotation - cart. axis [0,0,1]   

 cryst.   s( 6) = (     1          0          0      )
                  (     0          1          0      )
                  (     0          0         -1      )

 cart.    s( 6) = (  1.0000000  0.0000000  0.0000000 )
                  (  0.0000000  1.0000000  0.0000000 )
                  (  0.0000000  0.0000000 -1.0000000 )


      isym =  7     inv. 180 deg rotation - cart. axis [1,1,0]   

 cryst.   s( 7) = (     0         -1          0      )
                  (    -1          0          0      )
                  (     0          0          1      )

 cart.    s( 7) = (  0.0000000 -1.0000000  0.0000000 )
                  ( -1.0000000  0.0000000  0.0000000 )
                  (  0.0000000  0.0000000  1.0000000 )


      isym =  8     inv. 180 deg rotation - cart. axis [1,-1,0]  

 cryst.   s( 8) = (     0          1          0      )
                  (     1          0          0      )
                  (     0          0          1      )

 cart.    s( 8) = (  0.0000000  1.0000000  0.0000000 )
                  (  1.0000000  0.0000000  0.0000000 )
                  (  0.0000000  0.0000000  1.0000000 )


     point group D_2h (mmm) 
     there are  8 classes
     the character table:

       E     C2    C2'   C2''  i     s_v   s_v'  s_v''
A_g    1.00  1.00  1.00  1.00  1.00  1.00  1.00  1.00
B_1g   1.00  1.00 -1.00 -1.00  1.00  1.00 -1.00 -1.00
B_2g   1.00 -1.00  1.00 -1.00  1.00 -1.00  1.00 -1.00
B_3g   1.00 -1.00 -1.00  1.00  1.00 -1.00 -1.00  1.00
A_u    1.00  1.00  1.00  1.00 -1.00 -1.00 -1.00 -1.00
B_1u   1.00  1.00 -1.00 -1.00 -1.00 -1.00  1.00  1.00
B_2u   1.00 -1.00  1.00 -1.00 -1.00  1.00 -1.00  1.00
B_3u   1.00 -1.00 -1.00  1.00 -1.00  1.00  1.00 -1.00

     the symmetry operations in each class and the name of the first element:

     E        1
          identity                                               
     C2       2
          180 deg rotation - cart. axis [0,0,1]                  
     C2'      4
          180 deg rotation - cart. axis [1,-1,0]                 
     C2''     3
          180 deg rotation - cart. axis [1,1,0]                  
     i        5
          inversion                                              
     s_v      6
          inv. 180 deg rotation - cart. axis [0,0,1]             
     s_v'     8
          inv. 180 deg rotation - cart. axis [1,-1,0]            
     s_v''    7
          inv. 180 deg rotation - cart. axis [1,1,0]             

   Cartesian axes

     site n.     atom                  positions (alat units)
         1           Bi  tau(   1) = (   0.0000000   0.0000000   0.0000000  )
         2           Bi  tau(   2) = (   0.5000000   0.5000000   0.0000000  )
         3           Bi  tau(   3) = (   0.5000000   0.0000000   0.0000000  )
         4           Bi  tau(   4) = (   0.0000000   0.5000000   0.5000000  )
         5           Bi  tau(   5) = (   0.0000000   0.0000000   0.5000000  )
         6           Bi  tau(   6) = (   0.5000000   0.5000000   0.5000000  )
         7           Bi  tau(   7) = (   0.5000000   0.0000000   0.5000000  )
         8           Bi  tau(   8) = (   0.0000000   0.5000000   0.0000000  )
         9           Fe2 tau(   9) = (   0.2500000   0.2500000   0.2500000  )
        10           Fe2 tau(  10) = (   0.7500000   0.7500000   0.2500000  )
        11           Fe1 tau(  11) = (   0.7500000   0.2500000   0.2500000  )
        12           Fe1 tau(  12) = (   0.2500000   0.7500000   0.7500000  )
        13           Fe2 tau(  13) = (   0.2500000   0.2500000   0.7500000  )
        14           Fe2 tau(  14) = (   0.7500000   0.7500000   0.7500000  )
        15           Fe1 tau(  15) = (   0.7500000   0.2500000   0.7500000  )
        16           Fe1 tau(  16) = (   0.2500000   0.7500000   0.2500000  )
        17           O   tau(  17) = (   0.2500000   0.2500000   0.0000000  )
        18           O   tau(  18) = (   0.2500000   0.0000000   0.2500000  )
        19           O   tau(  19) = (   0.0000000   0.2500000   0.2500000  )
        20           O   tau(  20) = (   0.7500000   0.7500000   0.0000000  )
        21           O   tau(  21) = (   0.7500000   0.2500000   0.0000000  )
        22           O   tau(  22) = (   0.2500000   0.7500000   0.5000000  )
        23           O   tau(  23) = (   0.2500000   0.2500000   0.5000000  )
        24           O   tau(  24) = (   0.7500000   0.7500000   0.5000000  )
        25           O   tau(  25) = (   0.7500000   0.2500000   0.5000000  )
        26           O   tau(  26) = (   0.2500000   0.7500000   0.0000000  )
        27           O   tau(  27) = (   0.7500000   0.5000000   0.2500000  )
        28           O   tau(  28) = (   0.7500000   0.0000000   0.2500000  )
        29           O   tau(  29) = (   0.2500000   0.5000000   0.7500000  )
        30           O   tau(  30) = (   0.2500000   0.0000000   0.7500000  )
        31           O   tau(  31) = (   0.7500000   0.5000000   0.7500000  )
        32           O   tau(  32) = (   0.7500000   0.0000000   0.7500000  )
        33           O   tau(  33) = (   0.2500000   0.5000000   0.2500000  )
        34           O   tau(  34) = (   0.5000000   0.7500000   0.2500000  )
        35           O   tau(  35) = (   0.5000000   0.2500000   0.2500000  )
        36           O   tau(  36) = (   0.0000000   0.7500000   0.7500000  )
        37           O   tau(  37) = (   0.0000000   0.2500000   0.7500000  )
        38           O   tau(  38) = (   0.5000000   0.7500000   0.7500000  )
        39           O   tau(  39) = (   0.5000000   0.2500000   0.7500000  )
        40           O   tau(  40) = (   0.0000000   0.7500000   0.2500000  )

   Crystallographic axes

     site n.     atom                  positions (cryst. coord.)
         1           Bi  tau(   1) = (  0.0000000  0.0000000  0.0000000  )
         2           Bi  tau(   2) = (  0.5000000  0.5000000  0.0000000  )
         3           Bi  tau(   3) = (  0.5000000  0.0000000  0.0000000  )
         4           Bi  tau(   4) = (  0.0000000  0.5000000  0.5000000  )
         5           Bi  tau(   5) = (  0.0000000  0.0000000  0.5000000  )
         6           Bi  tau(   6) = (  0.5000000  0.5000000  0.5000000  )
         7           Bi  tau(   7) = (  0.5000000  0.0000000  0.5000000  )
         8           Bi  tau(   8) = (  0.0000000  0.5000000  0.0000000  )
         9           Fe2 tau(   9) = (  0.2500000  0.2500000  0.2500000  )
        10           Fe2 tau(  10) = (  0.7500000  0.7500000  0.2500000  )
        11           Fe1 tau(  11) = (  0.7500000  0.2500000  0.2500000  )
        12           Fe1 tau(  12) = (  0.2500000  0.7500000  0.7500000  )
        13           Fe2 tau(  13) = (  0.2500000  0.2500000  0.7500000  )
        14           Fe2 tau(  14) = (  0.7500000  0.7500000  0.7500000  )
        15           Fe1 tau(  15) = (  0.7500000  0.2500000  0.7500000  )
        16           Fe1 tau(  16) = (  0.2500000  0.7500000  0.2500000  )
        17           O   tau(  17) = (  0.2500000  0.2500000  0.0000000  )
        18           O   tau(  18) = (  0.2500000  0.0000000  0.2500000  )
        19           O   tau(  19) = (  0.0000000  0.2500000  0.2500000  )
        20           O   tau(  20) = (  0.7500000  0.7500000  0.0000000  )
        21           O   tau(  21) = (  0.7500000  0.2500000  0.0000000  )
        22           O   tau(  22) = (  0.2500000  0.7500000  0.5000000  )
        23           O   tau(  23) = (  0.2500000  0.2500000  0.5000000  )
        24           O   tau(  24) = (  0.7500000  0.7500000  0.5000000  )
        25           O   tau(  25) = (  0.7500000  0.2500000  0.5000000  )
        26           O   tau(  26) = (  0.2500000  0.7500000  0.0000000  )
        27           O   tau(  27) = (  0.7500000  0.5000000  0.2500000  )
        28           O   tau(  28) = (  0.7500000  0.0000000  0.2500000  )
        29           O   tau(  29) = (  0.2500000  0.5000000  0.7500000  )
        30           O   tau(  30) = (  0.2500000  0.0000000  0.7500000  )
        31           O   tau(  31) = (  0.7500000  0.5000000  0.7500000  )
        32           O   tau(  32) = (  0.7500000  0.0000000  0.7500000  )
        33           O   tau(  33) = (  0.2500000  0.5000000  0.2500000  )
        34           O   tau(  34) = (  0.5000000  0.7500000  0.2500000  )
        35           O   tau(  35) = (  0.5000000  0.2500000  0.2500000  )
        36           O   tau(  36) = (  0.0000000  0.7500000  0.7500000  )
        37           O   tau(  37) = (  0.0000000  0.2500000  0.7500000  )
        38           O   tau(  38) = (  0.5000000  0.7500000  0.7500000  )
        39           O   tau(  39) = (  0.5000000  0.2500000  0.7500000  )
        40           O   tau(  40) = (  0.0000000  0.7500000  0.2500000  )

     number of k points=     1  Methfessel-Paxton smearing, width (Ry)=  0.0100
                       cart. coord. in units 2pi/alat
        k(    1) = (   0.0000000   0.0000000   0.0000000), wk =   1.0000000

                       cryst. coord.
        k(    1) = (   0.0000000   0.0000000   0.0000000), wk =   1.0000000

     Dense  grid:   208345 G-vectors     FFT dimensions: (  75,  75,  75)

     Smooth grid:    73525 G-vectors     FFT dimensions: (  54,  54,  54)

     Dynamical RAM for                 wfc:       8.25 MB

     Dynamical RAM for     wfc (w. buffer):      24.75 MB

     Dynamical RAM for           str. fact:       3.18 MB

     Dynamical RAM for           local pot:       0.00 MB

     Dynamical RAM for          nlocal pot:      21.07 MB

     Dynamical RAM for                qrad:       4.98 MB

     Dynamical RAM for          rho,v,vnew:       9.66 MB

     Dynamical RAM for               rhoin:       3.22 MB

     Dynamical RAM for            rho*nmix:      25.43 MB

     Dynamical RAM for           G-vectors:       3.12 MB

     Dynamical RAM for          h,s,v(r/c):       0.63 MB

     Dynamical RAM for          <psi|beta>:       2.15 MB

     Dynamical RAM for      wfcinit/wfcrot:      20.80 MB

     Dynamical RAM for           addusdens:     167.70 MB

     Estimated static dynamical RAM per process >     104.28 MB

     Estimated max dynamical RAM per process >     271.98 MB

     Estimated total dynamical RAM >       1.06 GB

     Check: negative core charge=   -0.000014
     Generating pointlists ...
     new r_m :   0.1031 (alat units)  1.5380 (a.u.) for type    1
     new r_m :   0.1458 (alat units)  2.1750 (a.u.) for type    2
     new r_m :   0.1031 (alat units)  1.5380 (a.u.) for type    3
     new r_m :   0.1031 (alat units)  1.5380 (a.u.) for type    4

     Initial potential from superposition of free atoms

     starting charge  375.99958, renormalised to  392.00000

     negative rho (up, down):  1.729E-01 1.729E-01
     Starting wfcs are  272 randomized atomic wfcs

     total cpu time spent up to now is       16.5 secs

     Self-consistent Calculation

     iteration #  1     ecut=    30.00 Ry     beta= 0.40
     CG style diagonalization
     ethr =  1.00E-02,  avg # of iterations =  2.4

     negative rho (up, down):  1.592E-01 1.592E-01

     total cpu time spent up to now is       70.9 secs

     total energy              =   -4250.08993287 Ry
     estimated scf accuracy    <      31.51478112 Ry

     total magnetization       =     0.00 Bohr mag/cell
     absolute magnetization    =    39.96 Bohr mag/cell

     iteration #  2     ecut=    30.00 Ry     beta= 0.40
     CG style diagonalization
     ethr =  8.04E-03,  avg # of iterations =  3.4

     negative rho (up, down):  1.583E-01 1.583E-01

     total cpu time spent up to now is      143.7 secs

     total energy              =   -4256.35560013 Ry
     estimated scf accuracy    <       8.74418073 Ry

     total magnetization       =    -0.00 Bohr mag/cell
     absolute magnetization    =    36.45 Bohr mag/cell

     iteration #  3     ecut=    30.00 Ry     beta= 0.40
     CG style diagonalization
     ethr =  2.23E-03,  avg # of iterations =  3.2

     negative rho (up, down):  1.553E-01 1.553E-01

     total cpu time spent up to now is      212.9 secs

     total energy              =   -4258.80032626 Ry
     estimated scf accuracy    <       2.93410306 Ry

     total magnetization       =    -0.00 Bohr mag/cell
     absolute magnetization    =    35.92 Bohr mag/cell

     iteration #  4     ecut=    30.00 Ry     beta= 0.40
     CG style diagonalization
     ethr =  7.48E-04,  avg # of iterations =  3.2

     negative rho (up, down):  1.574E-01 1.573E-01

     total cpu time spent up to now is      278.4 secs

     total energy              =   -4259.16082063 Ry
     estimated scf accuracy    <       0.23716594 Ry

     total magnetization       =    -0.00 Bohr mag/cell
     absolute magnetization    =    32.43 Bohr mag/cell

     iteration #  5     ecut=    30.00 Ry     beta= 0.40
     CG style diagonalization
     ethr =  6.05E-05,  avg # of iterations =  3.6

     negative rho (up, down):  1.583E-01 1.582E-01

     total cpu time spent up to now is      351.9 secs

     total energy              =   -4259.19882685 Ry
     estimated scf accuracy    <       0.43762088 Ry

     total magnetization       =    -0.10 Bohr mag/cell
     absolute magnetization    =    31.46 Bohr mag/cell

     iteration #  6     ecut=    30.00 Ry     beta= 0.40
     CG style diagonalization
     c_bands:  1 eigenvalues not converged
     ethr =  6.05E-05,  avg # of iterations =  3.3

     negative rho (up, down):  1.580E-01 1.582E-01

     total cpu time spent up to now is      420.1 secs

     total energy              =   -4259.24241336 Ry
     estimated scf accuracy    <       0.03187061 Ry

     total magnetization       =    -0.30 Bohr mag/cell
     absolute magnetization    =    30.98 Bohr mag/cell

     iteration #  7     ecut=    30.00 Ry     beta= 0.40
     CG style diagonalization
     ethr =  8.13E-06,  avg # of iterations =  3.3

     negative rho (up, down):  1.580E-01 1.582E-01

     total cpu time spent up to now is      487.5 secs

     total energy              =   -4259.24470850 Ry
     estimated scf accuracy    <       0.05280970 Ry

     total magnetization       =     0.25 Bohr mag/cell
     absolute magnetization    =    30.71 Bohr mag/cell

     iteration #  8     ecut=    30.00 Ry     beta= 0.40
     CG style diagonalization
     ethr =  8.13E-06,  avg # of iterations =  3.1

     negative rho (up, down):  1.581E-01 1.583E-01

     total cpu time spent up to now is      551.8 secs

     total energy              =   -4259.24892527 Ry
     estimated scf accuracy    <       0.00941303 Ry

     total magnetization       =    -0.24 Bohr mag/cell
     absolute magnetization    =    30.64 Bohr mag/cell

     iteration #  9     ecut=    30.00 Ry     beta= 0.40
     CG style diagonalization
     ethr =  2.40E-06,  avg # of iterations =  3.1

     negative rho (up, down):  1.581E-01 1.584E-01

     total cpu time spent up to now is      629.1 secs

     total energy              =   -4259.25012366 Ry
     estimated scf accuracy    <       0.01660406 Ry

     total magnetization       =    -0.16 Bohr mag/cell
     absolute magnetization    =    30.63 Bohr mag/cell

     iteration # 10     ecut=    30.00 Ry     beta= 0.40
     CG style diagonalization
     ethr =  2.40E-06,  avg # of iterations =  3.0

     negative rho (up, down):  1.581E-01 1.585E-01

     total cpu time spent up to now is      712.8 secs

     total energy              =   -4259.25072967 Ry
     estimated scf accuracy    <       0.00094852 Ry

     total magnetization       =    -0.18 Bohr mag/cell
     absolute magnetization    =    30.62 Bohr mag/cell

     iteration # 11     ecut=    30.00 Ry     beta= 0.40
     CG style diagonalization
     ethr =  2.42E-07,  avg # of iterations =  3.1

     negative rho (up, down):  1.581E-01 1.585E-01

     total cpu time spent up to now is      802.4 secs

     total energy              =   -4259.25086579 Ry
     estimated scf accuracy    <       0.00030713 Ry

     total magnetization       =    -0.21 Bohr mag/cell
     absolute magnetization    =    30.59 Bohr mag/cell

     iteration # 12     ecut=    30.00 Ry     beta= 0.40
     CG style diagonalization
     ethr =  7.83E-08,  avg # of iterations =  3.1

     negative rho (up, down):  1.581E-01 1.585E-01

     total cpu time spent up to now is      895.2 secs

     total energy              =   -4259.25093502 Ry
     estimated scf accuracy    <       0.00007908 Ry

     total magnetization       =    -0.23 Bohr mag/cell
     absolute magnetization    =    30.59 Bohr mag/cell

     iteration # 13     ecut=    30.00 Ry     beta= 0.40
     CG style diagonalization
     ethr =  2.02E-08,  avg # of iterations =  3.2

     negative rho (up, down):  1.580E-01 1.586E-01

     total cpu time spent up to now is      991.5 secs

     total energy              =   -4259.25095804 Ry
     estimated scf accuracy    <       0.00003591 Ry

     total magnetization       =    -0.26 Bohr mag/cell
     absolute magnetization    =    30.59 Bohr mag/cell

     iteration # 14     ecut=    30.00 Ry     beta= 0.40
     CG style diagonalization
     ethr =  9.16E-09,  avg # of iterations =  3.3

     negative rho (up, down):  1.579E-01 1.586E-01

     total cpu time spent up to now is     1070.8 secs

     total energy              =   -4259.25098037 Ry
     estimated scf accuracy    <       0.00001000 Ry

     total magnetization       =    -0.34 Bohr mag/cell
     absolute magnetization    =    30.60 Bohr mag/cell

     iteration # 15     ecut=    30.00 Ry     beta= 0.40
     CG style diagonalization
     ethr =  2.55E-09,  avg # of iterations =  3.3

     negative rho (up, down):  1.578E-01 1.587E-01

     Magnetic moment per site:
     atom:    1    charge:   11.7982    magn:   -0.0152    constr:    0.0000
     atom:    2    charge:   11.7991    magn:   -0.0153    constr:    0.0000
     atom:    3    charge:   11.7986    magn:   -0.0152    constr:    0.0000
     atom:    4    charge:   11.7991    magn:   -0.0153    constr:    0.0000
     atom:    5    charge:   11.7986    magn:   -0.0152    constr:    0.0000
     atom:    6    charge:   11.7994    magn:   -0.0153    constr:    0.0000
     atom:    7    charge:   11.7991    magn:   -0.0153    constr:    0.0000
     atom:    8    charge:   11.7986    magn:   -0.0152    constr:    0.0000
     atom:    9    charge:   13.0105    magn:    3.2833    constr:    0.0000
     atom:   10    charge:   13.0105    magn:    3.2833    constr:    0.0000
     atom:   11    charge:   13.0098    magn:   -3.2903    constr:    0.0000
     atom:   12    charge:   13.0098    magn:   -3.2903    constr:    0.0000
     atom:   13    charge:   13.0105    magn:    3.2833    constr:    0.0000
     atom:   14    charge:   13.0105    magn:    3.2833    constr:    0.0000
     atom:   15    charge:   13.0098    magn:   -3.2903    constr:    0.0000
     atom:   16    charge:   13.0098    magn:   -3.2903    constr:    0.0000
     atom:   17    charge:    5.3609    magn:    0.0684    constr:    0.0000
     atom:   18    charge:    5.3595    magn:   -0.0006    constr:    0.0000
     atom:   19    charge:    5.3595    magn:   -0.0006    constr:    0.0000
     atom:   20    charge:    5.3609    magn:    0.0684    constr:    0.0000
     atom:   21    charge:    5.3607    magn:   -0.0714    constr:    0.0000
     atom:   22    charge:    5.3627    magn:   -0.0713    constr:    0.0000
     atom:   23    charge:    5.3629    magn:    0.0684    constr:    0.0000
     atom:   24    charge:    5.3629    magn:    0.0684    constr:    0.0000
     atom:   25    charge:    5.3627    magn:   -0.0713    constr:    0.0000
     atom:   26    charge:    5.3607    magn:   -0.0714    constr:    0.0000
     atom:   27    charge:    5.3616    magn:   -0.0006    constr:    0.0000
     atom:   28    charge:    5.3595    magn:   -0.0006    constr:    0.0000
     atom:   29    charge:    5.3616    magn:   -0.0006    constr:    0.0000
     atom:   30    charge:    5.3595    magn:   -0.0006    constr:    0.0000
     atom:   31    charge:    5.3616    magn:   -0.0006    constr:    0.0000
     atom:   32    charge:    5.3595    magn:   -0.0006    constr:    0.0000
     atom:   33    charge:    5.3616    magn:   -0.0006    constr:    0.0000
     atom:   34    charge:    5.3616    magn:   -0.0006    constr:    0.0000
     atom:   35    charge:    5.3616    magn:   -0.0006    constr:    0.0000
     atom:   36    charge:    5.3595    magn:   -0.0006    constr:    0.0000
     atom:   37    charge:    5.3595    magn:   -0.0006    constr:    0.0000
     atom:   38    charge:    5.3616    magn:   -0.0006    constr:    0.0000
     atom:   39    charge:    5.3616    magn:   -0.0006    constr:    0.0000
     atom:   40    charge:    5.3595    magn:   -0.0006    constr:    0.0000

     total cpu time spent up to now is     1144.0 secs

     End of self-consistent calculation

 ------ SPIN UP ------------


          k = 0.0000 0.0000 0.0000 (  9171 PWs)   bands (ev):

   -78.6232 -78.6229 -78.6225 -78.6224 -74.2350 -74.2348 -74.2344 -74.2344
   -44.7430 -44.7403 -44.7383 -44.7367 -44.5044 -44.5043 -44.5033 -44.5033
   -44.5001 -44.5000 -44.5000 -44.5000 -40.5144 -40.5121 -40.5112 -40.5099
   -40.2187 -40.2187 -40.2177 -40.2176 -40.2148 -40.2148 -40.2148 -40.2147
   -11.6341 -11.6297 -11.6247 -11.6228 -11.6058 -11.6058 -11.5989 -11.5982
   -11.5982 -11.5916 -11.5912 -11.5912 -11.5907 -11.5907 -11.5889 -11.5889
   -11.5888 -11.5771 -11.5747 -11.5646 -11.5644 -11.5644 -11.5629 -11.5610
   -11.5597 -11.5571 -11.5571 -11.5569 -11.5569 -11.5564 -11.5537 -11.5525
   -11.5489 -11.5453 -11.5418 -11.5418 -11.5380 -11.5251 -11.5251 -11.5177
    -7.1055  -6.4414  -6.3415  -6.3106  -5.8301  -5.8073  -5.7295  -5.6711
    -5.6711  -5.6503  -5.6472  -5.5810  -5.5046  -5.5046  -5.5035  -5.5035
    -5.4789  -5.3422  -5.3422  -5.3154  -5.2865  -5.2344  -5.2038  -5.1959
     0.9287   0.9287   0.9457   1.3156   1.3267   1.3268   1.9910   2.1170
     5.1229   5.2431   5.2432   5.3553   5.3637   5.4885   5.5315   5.6573
     5.7972   6.1689   6.2307   6.2999   6.3259   6.4869   6.5464   6.5465
     6.7031   6.7081   6.9143   7.1110   7.1110   7.1114   7.1114   7.2299
     7.3338   7.3338   7.3919   7.3920   7.5193   7.5568   7.5970   7.6555
     7.6555   7.6656   7.6657   7.7035   7.7035   7.7174   7.7329   7.7782
     7.7782   7.9863   8.1889   8.3809   8.3809   8.5632   8.5632   8.6177
     8.7824   9.1976   9.1976   9.3798   9.3799   9.4095   9.5436   9.5436
     9.6864   9.7311   9.7311   9.7334   9.7357   9.7610   9.7710   9.7710
     9.9001  10.0176  10.0177  10.1154  10.1165  10.1165  10.1253  10.2057
    10.2149  10.2150  10.3371  10.3371  10.3447  10.5291  10.5291  10.6047
    10.8431  10.8431  10.8742  10.8742  10.9321  10.9373  10.9407  10.9495
    10.9870  11.1004  12.0652  12.1917  12.2038  12.2584  12.4837  12.4837
    12.5416  12.5416  12.5848  12.7474  12.9292  12.9292  12.9459  13.0352
    13.1034  13.1630  13.2204  13.2204  13.4978  13.8461  13.8965  13.9151
    14.2191  14.7716  14.7716  14.7818  14.8250  14.8551  14.8551  14.9961
    15.3354  15.3432  15.3437  15.3931  15.3981  15.3981  16.2871  16.3526
    16.5298  16.5299  16.5747

     occupation numbers 
     1.0000   1.0000   1.0000   1.0000   1.0000   1.0000   1.0000   1.0000
     1.0000   1.0000   1.0000   1.0000   1.0000   1.0000   1.0000   1.0000
     1.0000   1.0000   1.0000   1.0000   1.0000   1.0000   1.0000   1.0000
     1.0000   1.0000   1.0000   1.0000   1.0000   1.0000   1.0000   1.0000
     1.0000   1.0000   1.0000   1.0000   1.0000   1.0000   1.0000   1.0000
     1.0000   1.0000   1.0000   1.0000   1.0000   1.0000   1.0000   1.0000
     1.0000   1.0000   1.0000   1.0000   1.0000   1.0000   1.0000   1.0000
     1.0000   1.0000   1.0000   1.0000   1.0000   1.0000   1.0000   1.0000
     1.0000   1.0000   1.0000   1.0000   1.0000   1.0000   1.0000   1.0000
     1.0000   1.0000   1.0000   1.0000   1.0000   1.0000   1.0000   1.0000
     1.0000   1.0000   1.0000   1.0000   1.0000   1.0000   1.0000   1.0000
     1.0000   1.0000   1.0000   1.0000   1.0000   1.0000   1.0000   1.0000
     1.0000   1.0000   1.0000   1.0000   1.0000   1.0000   1.0000   1.0000
     1.0000   1.0000   1.0000   1.0000   1.0000   1.0000   1.0000   1.0000
     1.0000   1.0000   1.0000   1.0000   1.0000   1.0000   1.0000   1.0000
     1.0000   1.0000   1.0000   1.0000   1.0000   1.0000   1.0000   1.0000
     1.0000   1.0000   1.0000   1.0000   1.0000   1.0000   1.0000   1.0000
     1.0000   1.0000   1.0000   1.0000   1.0000   1.0000   1.0000   1.0000
     1.0000   1.0000   1.0000   1.0000   1.0000   1.0000   1.0000   1.0000
     1.0000   1.0000   1.0000   1.0000   1.0000   1.0000   1.0000   1.0000
     1.0000   1.0000   1.0000   1.0000   1.0000   1.0000   1.0000   1.0000
     1.0000   1.0000   1.0000   1.0000   1.0000   1.0000   1.0000   1.0000
     1.0000   1.0000   1.0000   1.0000   1.0000   1.0000   1.0000   1.0000
     1.0000   1.0000   1.0000   1.0000   1.0000   1.0000   1.0000   1.0000
     1.0000   1.0000   0.9961   0.4117   0.3389   0.0819  -0.0033  -0.0033
    -0.0005  -0.0005  -0.0001  -0.0000  -0.0000  -0.0000  -0.0000  -0.0000
    -0.0000  -0.0000  -0.0000  -0.0000  -0.0000  -0.0000  -0.0000  -0.0000
    -0.0000  -0.0000  -0.0000  -0.0000  -0.0000  -0.0000  -0.0000  -0.0000
    -0.0000  -0.0000  -0.0000  -0.0000  -0.0000  -0.0000  -0.0000  -0.0000
    -0.0000  -0.0000  -0.0000

 ------ SPIN DOWN ----------


          k = 0.0000 0.0000 0.0000 (  9171 PWs)   bands (ev):

   -78.6329 -78.6326 -78.6322 -78.6321 -74.2341 -74.2339 -74.2335 -74.2335
   -44.7507 -44.7481 -44.7460 -44.7444 -44.5145 -44.5145 -44.5134 -44.5134
   -44.5102 -44.5102 -44.5101 -44.5101 -40.5174 -40.5152 -40.5142 -40.5129
   -40.2160 -40.2160 -40.2149 -40.2149 -40.2120 -40.2120 -40.2120 -40.2120
   -11.6406 -11.6342 -11.6295 -11.6293 -11.6116 -11.6116 -11.6042 -11.6042
   -11.6001 -11.5968 -11.5953 -11.5953 -11.5941 -11.5941 -11.5939 -11.5939
   -11.5925 -11.5809 -11.5794 -11.5708 -11.5691 -11.5684 -11.5684 -11.5622
   -11.5609 -11.5605 -11.5604 -11.5604 -11.5596 -11.5596 -11.5589 -11.5576
   -11.5524 -11.5464 -11.5457 -11.5457 -11.5432 -11.5286 -11.5286 -11.5210
    -7.1087  -6.4408  -6.3469  -6.3118  -5.8318  -5.8090  -5.7273  -5.6732
    -5.6732  -5.6512  -5.6483  -5.5893  -5.5060  -5.5060  -5.5046  -5.5046
    -5.4836  -5.3431  -5.3431  -5.3151  -5.2896  -5.2386  -5.2049  -5.1970
     0.9103   0.9103   0.9304   1.2974   1.3099   1.3099   1.9726   2.0990
     5.1216   5.2330   5.2330   5.3536   5.3605   5.4842   5.5264   5.6544
     5.7921   6.1657   6.2278   6.2947   6.3207   6.4828   6.5419   6.5419
     6.6960   6.7014   6.9087   7.1068   7.1068   7.1078   7.1078   7.2248
     7.3260   7.3260   7.3879   7.3879   7.5197   7.5501   7.5903   7.6522
     7.6522   7.6534   7.6534   7.7020   7.7021   7.7057   7.7198   7.7752
     7.7752   7.9825   8.1851   8.3792   8.3792   8.5580   8.5580   8.6172
     8.7752   9.1933   9.1933   9.3772   9.3772   9.4053   9.5410   9.5410
     9.6826   9.7257   9.7285   9.7291   9.7291   9.7598   9.7641   9.7641
     9.8964  10.0142  10.0143  10.1119  10.1149  10.1150  10.1249  10.1992
    10.2137  10.2138  10.3337  10.3337  10.3432  10.5275  10.5275  10.6009
    10.8420  10.8420  10.8725  10.8725  10.9312  10.9317  10.9351  10.9485
    10.9780  11.0927  12.0578  12.1613  12.2002  12.2257  12.4844  12.4844
    12.5424  12.5424  12.5875  12.7417  12.9273  12.9273  12.9482  13.0304
    13.1060  13.1659  13.2200  13.2201  13.4910  13.8221  13.8669  13.9038
    14.2177  14.7505  14.7505  14.7617  14.8013  14.8488  14.8488  14.9945
    15.3142  15.3210  15.3234  15.3666  15.3893  15.3893  16.2666  16.3467
    16.5073  16.5073  16.5669

     occupation numbers 
     1.0000   1.0000   1.0000   1.0000   1.0000   1.0000   1.0000   1.0000
     1.0000   1.0000   1.0000   1.0000   1.0000   1.0000   1.0000   1.0000
     1.0000   1.0000   1.0000   1.0000   1.0000   1.0000   1.0000   1.0000
     1.0000   1.0000   1.0000   1.0000   1.0000   1.0000   1.0000   1.0000
     1.0000   1.0000   1.0000   1.0000   1.0000   1.0000   1.0000   1.0000
     1.0000   1.0000   1.0000   1.0000   1.0000   1.0000   1.0000   1.0000
     1.0000   1.0000   1.0000   1.0000   1.0000   1.0000   1.0000   1.0000
     1.0000   1.0000   1.0000   1.0000   1.0000   1.0000   1.0000   1.0000
     1.0000   1.0000   1.0000   1.0000   1.0000   1.0000   1.0000   1.0000
     1.0000   1.0000   1.0000   1.0000   1.0000   1.0000   1.0000   1.0000
     1.0000   1.0000   1.0000   1.0000   1.0000   1.0000   1.0000   1.0000
     1.0000   1.0000   1.0000   1.0000   1.0000   1.0000   1.0000   1.0000
     1.0000   1.0000   1.0000   1.0000   1.0000   1.0000   1.0000   1.0000
     1.0000   1.0000   1.0000   1.0000   1.0000   1.0000   1.0000   1.0000
     1.0000   1.0000   1.0000   1.0000   1.0000   1.0000   1.0000   1.0000
     1.0000   1.0000   1.0000   1.0000   1.0000   1.0000   1.0000   1.0000
     1.0000   1.0000   1.0000   1.0000   1.0000   1.0000   1.0000   1.0000
     1.0000   1.0000   1.0000   1.0000   1.0000   1.0000   1.0000   1.0000
     1.0000   1.0000   1.0000   1.0000   1.0000   1.0000   1.0000   1.0000
     1.0000   1.0000   1.0000   1.0000   1.0000   1.0000   1.0000   1.0000
     1.0000   1.0000   1.0000   1.0000   1.0000   1.0000   1.0000   1.0000
     1.0000   1.0000   1.0000   1.0000   1.0000   1.0000   1.0000   1.0000
     1.0000   1.0000   1.0000   1.0000   1.0000   1.0000   1.0000   1.0000
     1.0000   1.0000   1.0000   1.0000   1.0000   1.0000   1.0000   1.0000
     1.0000   1.0000   1.0076   0.5994   0.3601   0.2195  -0.0032  -0.0032
    -0.0005  -0.0005  -0.0001  -0.0000  -0.0000  -0.0000  -0.0000  -0.0000
    -0.0000  -0.0000  -0.0000  -0.0000  -0.0000  -0.0000  -0.0000  -0.0000
    -0.0000  -0.0000  -0.0000  -0.0000  -0.0000  -0.0000  -0.0000  -0.0000
    -0.0000  -0.0000  -0.0000  -0.0000  -0.0000  -0.0000  -0.0000  -0.0000
    -0.0000  -0.0000  -0.0000

     the Fermi energy is    12.1774 ev

!    total energy              =   -4259.25100663 Ry
     estimated scf accuracy    <       0.00000352 Ry
     smearing contrib. (-TS)   =      -0.00548571 Ry
     internal energy E=F+TS    =   -4259.24552091 Ry

     The total energy is F=E-TS. E is the sum of the following terms:
     one-electron contribution =   -1693.18657072 Ry
     hartree contribution      =    1096.07314689 Ry
     xc contribution           =    -924.52832258 Ry
     ewald contribution        =   -2737.60377451 Ry

     total magnetization       =    -0.36 Bohr mag/cell
     absolute magnetization    =    30.61 Bohr mag/cell

     convergence has been achieved in  15 iterations

     Writing output data file /home/aldair1809/Documentos/QE/4BFO/temp/bifeo3.save/

     init_run     :     15.24s CPU     16.09s WALL (       1 calls)
     electrons    :   1087.00s CPU   1127.51s WALL (       1 calls)

     Called by init_run:
     wfcinit      :     11.27s CPU     11.39s WALL (       1 calls)
     wfcinit:atom :      0.01s CPU      0.02s WALL (       2 calls)
     wfcinit:wfcr :     11.15s CPU     11.25s WALL (       2 calls)
     potinit      :      0.43s CPU      0.49s WALL (       1 calls)
     hinit0       :      0.52s CPU      0.54s WALL (       1 calls)

     Called by electrons:
     c_bands      :    890.61s CPU    905.46s WALL (      15 calls)
     sum_band     :    145.40s CPU    160.07s WALL (      15 calls)
     v_of_rho     :      5.66s CPU      5.88s WALL (      16 calls)
     v_h          :      0.22s CPU      0.23s WALL (      16 calls)
     v_xc         :      5.44s CPU      5.65s WALL (      16 calls)
     newd         :     46.93s CPU     58.28s WALL (      16 calls)
     mix_rho      :      1.04s CPU      1.08s WALL (      15 calls)

     Called by c_bands:
     init_us_2    :      0.93s CPU      0.95s WALL (      62 calls)
     ccgdiagg     :    686.26s CPU    698.14s WALL (      30 calls)
     wfcrot       :    214.70s CPU    217.76s WALL (      30 calls)

     Called by sum_band:
     sum_band:wei :      0.02s CPU      0.02s WALL (      15 calls)
     sum_band:loo :     58.73s CPU     59.76s WALL (      15 calls)
     sum_band:buf :      0.15s CPU      0.15s WALL (      30 calls)
     sum_band:ini :      0.46s CPU      0.46s WALL (      30 calls)
     sum_band:cal :     45.48s CPU     45.90s WALL (      30 calls)
     sum_band:bec :      0.25s CPU      0.26s WALL (      30 calls)
     addusdens    :     83.86s CPU     97.40s WALL (      15 calls)
     addusd:skk   :      0.27s CPU      0.30s WALL (      60 calls)
     addusd:dgemm :     56.88s CPU     67.71s WALL (     120 calls)
     addusd:qvan2 :     26.15s CPU     26.71s WALL (     120 calls)

     Called by *cgdiagg:
     h_psi        :    386.06s CPU    394.47s WALL (   15902 calls)
     s_psi        :    251.66s CPU    254.64s WALL (   31774 calls)

     Called by h_psi:
     h_psi:calbec :    155.98s CPU    158.64s WALL (   15902 calls)
     vloc_psi     :     79.43s CPU     83.48s WALL (   15902 calls)
     add_vuspsi   :    150.06s CPU    151.80s WALL (   15902 calls)
     hs_1psi      :    375.96s CPU    383.57s WALL (   15872 calls)
     s_1psi       :    214.38s CPU    217.30s WALL (   15872 calls)

     General routines
     calbec       :    311.55s CPU    316.40s WALL (   31804 calls)
     fft          :      4.26s CPU      4.54s WALL (     394 calls)
     ffts         :      0.18s CPU      0.20s WALL (      62 calls)
     fftw         :     83.03s CPU     87.44s WALL (   53042 calls)
     interpolate  :      0.48s CPU      0.51s WALL (      32 calls)

     Parallel routines
     fft_scatt_xy :      9.32s CPU      9.88s WALL (   53498 calls)
     fft_scatt_yz :     19.84s CPU     21.71s WALL (   53498 calls)

     PWSCF        :  18m22.75s CPU  19m 4.37s WALL


   This run was terminated on:  16:28:27  24Oct2024            

=------------------------------------------------------------------------------=
   JOB DONE.
=------------------------------------------------------------------------------=
