
     Program PWSCF v.6.7MaX starts on 24Oct2024 at 17:47:25 

     This program is part of the open-source Quantum ESPRESSO suite
     for quantum simulation of materials; please cite
         "P. Giannozzi et al., J. Phys.:Condens. Matter 21 395502 (2009);
         "P. Giannozzi et al., J. Phys.:Condens. Matter 29 465901 (2017);
          URL http://www.quantum-espresso.org", 
     in publications or presentations arising from this work. More details at
     http://www.quantum-espresso.org/quote

     Parallel version (MPI), running on     4 processors

     MPI processes distributed on     1 nodes
     R & G space division:  proc/nbgrp/npool/nimage =       4
     Waiting for input...
     Reading input from standard input

     Current dimensions of program PWSCF are:
     Max number of different atomic species (ntypx) = 10
     Max number of k-points (npk) =  40000
     Max angular momentum in pseudopotentials (lmaxx) =  3
     Message from routine iosys:
     wrong startingpot: use default (1)

     Subspace diagonalization in iterative solution of the eigenvalue problem:
     one sub-group per band group will be used
     scalapack distributed-memory algorithm (size of sub-group:  2*  2 procs)

     Found symmetry operation: I + ( -0.5000 -0.5000  0.0000)
     This is a supercell, fractional translations are disabled

     Parallelization info
     --------------------
     sticks:   dense  smooth     PW     G-vecs:    dense   smooth      PW
     Min        1061     529    144                52086    18381    2610
     Max        1064     531    145                52087    18382    2613
     Sum        4249    2121    577               208345    73525   10443



     bravais-lattice index     =            1
     lattice parameter (alat)  =      14.9137  a.u.
     unit-cell volume          =    3317.0944 (a.u.)^3
     number of atoms/cell      =           40
     number of atomic types    =            4
     number of electrons       =       392.00
     number of Kohn-Sham states=          235
     kinetic-energy cutoff     =      30.0000  Ry
     charge density cutoff     =     240.0000  Ry
     scf convergence threshold =      1.0E-05
     mixing beta               =       0.4000
     number of iterations used =            8  plain     mixing
     Exchange-correlation=  SLA  PW   PBX  PBC
                           (   1   4   3   4   0   0   0)

     celldm(1)=  14.913719  celldm(2)=   0.000000  celldm(3)=   0.000000
     celldm(4)=   0.000000  celldm(5)=   0.000000  celldm(6)=   0.000000

     crystal axes: (cart. coord. in units of alat)
               a(1) = (   1.000000   0.000000   0.000000 )  
               a(2) = (   0.000000   1.000000   0.000000 )  
               a(3) = (   0.000000   0.000000   1.000000 )  

     reciprocal axes: (cart. coord. in units 2 pi/alat)
               b(1) = (  1.000000  0.000000  0.000000 )  
               b(2) = (  0.000000  1.000000  0.000000 )  
               b(3) = (  0.000000  0.000000  1.000000 )  


     PseudoPot. # 1 for O  read from file:
     /home/aldair1809/Programas/QE/q-e-qe-7.3/pseudo/o_pbe_v1.2.uspp.F.UPF
     MD5 check sum: 734c27235a0248c51dbae37a1fbe46ec
     Pseudo is Ultrasoft + core correction, Zval =  6.0
     Generated by new atomic code, or converted to UPF format
     Using radial grid of  737 points,  5 beta functions with: 
                l(1) =   0
                l(2) =   0
                l(3) =   1
                l(4) =   1
                l(5) =   2
     Q(r) pseudized with  8 coefficients,  rinner =    0.900   0.900   0.900
                                                       0.900   0.900

     PseudoPot. # 2 for Bi read from file:
     /home/aldair1809/Programas/QE/q-e-qe-7.3/pseudo/bi_pbe_v1.uspp.F.UPF
     MD5 check sum: cceb9f28ec65b6d7ff33140f5b0b1758
     Pseudo is Ultrasoft + core correction, Zval = 15.0
     Generated by new atomic code, or converted to UPF format
     Using radial grid of  899 points,  6 beta functions with: 
                l(1) =   0
                l(2) =   0
                l(3) =   1
                l(4) =   1
                l(5) =   2
                l(6) =   2
     Q(r) pseudized with  6 coefficients,  rinner =    1.000   1.000   1.000
                                                       1.000   1.000

     PseudoPot. # 3 for Fe read from file:
     /home/aldair1809/Programas/QE/q-e-qe-7.3/pseudo/fe_pbe_v1.5.uspp.F.UPF
     MD5 check sum: a130daea23fe5165f5d574ae7f82ed95
     Pseudo is Ultrasoft + core correction, Zval = 16.0
     Generated by new atomic code, or converted to UPF format
     Using radial grid of  861 points,  6 beta functions with: 
                l(1) =   0
                l(2) =   0
                l(3) =   1
                l(4) =   1
                l(5) =   2
                l(6) =   2
     Q(r) pseudized with  8 coefficients,  rinner =    1.000   1.000   1.000
                                                       1.000   1.000

     PseudoPot. # 4 for Fe read from file:
     /home/aldair1809/Programas/QE/q-e-qe-7.3/pseudo/fe_pbe_v1.5.uspp.F.UPF
     MD5 check sum: a130daea23fe5165f5d574ae7f82ed95
     Pseudo is Ultrasoft + core correction, Zval = 16.0
     Generated by new atomic code, or converted to UPF format
     Using radial grid of  861 points,  6 beta functions with: 
                l(1) =   0
                l(2) =   0
                l(3) =   1
                l(4) =   1
                l(5) =   2
                l(6) =   2
     Q(r) pseudized with  8 coefficients,  rinner =    1.000   1.000   1.000
                                                       1.000   1.000

     atomic species   valence    mass     pseudopotential
        O              6.00    15.99940     O ( 1.00)
        Bi            15.00   208.98040     Bi( 1.00)
        Fe1           16.00    55.84500     Fe( 1.00)
        Fe2           16.00    55.84500     Fe( 1.00)

     Starting magnetic structure 
     atomic species   magnetization
        O            0.000
        Bi           0.000
        Fe1         -0.800
        Fe2          0.800

      8 Sym. Ops., with inversion, found


                                    s                        frac. trans.

      isym =  1     identity                                     

 cryst.   s( 1) = (     1          0          0      )
                  (     0          1          0      )
                  (     0          0          1      )

 cart.    s( 1) = (  1.0000000  0.0000000  0.0000000 )
                  (  0.0000000  1.0000000  0.0000000 )
                  (  0.0000000  0.0000000  1.0000000 )


      isym =  2     180 deg rotation - cart. axis [0,0,1]        

 cryst.   s( 2) = (    -1          0          0      )
                  (     0         -1          0      )
                  (     0          0          1      )

 cart.    s( 2) = ( -1.0000000  0.0000000  0.0000000 )
                  (  0.0000000 -1.0000000  0.0000000 )
                  (  0.0000000  0.0000000  1.0000000 )


      isym =  3     180 deg rotation - cart. axis [1,1,0]        

 cryst.   s( 3) = (     0          1          0      )
                  (     1          0          0      )
                  (     0          0         -1      )

 cart.    s( 3) = (  0.0000000  1.0000000  0.0000000 )
                  (  1.0000000  0.0000000  0.0000000 )
                  (  0.0000000  0.0000000 -1.0000000 )


      isym =  4     180 deg rotation - cart. axis [1,-1,0]       

 cryst.   s( 4) = (     0         -1          0      )
                  (    -1          0          0      )
                  (     0          0         -1      )

 cart.    s( 4) = (  0.0000000 -1.0000000  0.0000000 )
                  ( -1.0000000  0.0000000  0.0000000 )
                  (  0.0000000  0.0000000 -1.0000000 )


      isym =  5     inversion                                    

 cryst.   s( 5) = (    -1          0          0      )
                  (     0         -1          0      )
                  (     0          0         -1      )

 cart.    s( 5) = ( -1.0000000  0.0000000  0.0000000 )
                  (  0.0000000 -1.0000000  0.0000000 )
                  (  0.0000000  0.0000000 -1.0000000 )


      isym =  6     inv. 180 deg rotation - cart. axis [0,0,1]   

 cryst.   s( 6) = (     1          0          0      )
                  (     0          1          0      )
                  (     0          0         -1      )

 cart.    s( 6) = (  1.0000000  0.0000000  0.0000000 )
                  (  0.0000000  1.0000000  0.0000000 )
                  (  0.0000000  0.0000000 -1.0000000 )


      isym =  7     inv. 180 deg rotation - cart. axis [1,1,0]   

 cryst.   s( 7) = (     0         -1          0      )
                  (    -1          0          0      )
                  (     0          0          1      )

 cart.    s( 7) = (  0.0000000 -1.0000000  0.0000000 )
                  ( -1.0000000  0.0000000  0.0000000 )
                  (  0.0000000  0.0000000  1.0000000 )


      isym =  8     inv. 180 deg rotation - cart. axis [1,-1,0]  

 cryst.   s( 8) = (     0          1          0      )
                  (     1          0          0      )
                  (     0          0          1      )

 cart.    s( 8) = (  0.0000000  1.0000000  0.0000000 )
                  (  1.0000000  0.0000000  0.0000000 )
                  (  0.0000000  0.0000000  1.0000000 )


     point group D_2h (mmm) 
     there are  8 classes
     the character table:

       E     C2    C2'   C2''  i     s_v   s_v'  s_v''
A_g    1.00  1.00  1.00  1.00  1.00  1.00  1.00  1.00
B_1g   1.00  1.00 -1.00 -1.00  1.00  1.00 -1.00 -1.00
B_2g   1.00 -1.00  1.00 -1.00  1.00 -1.00  1.00 -1.00
B_3g   1.00 -1.00 -1.00  1.00  1.00 -1.00 -1.00  1.00
A_u    1.00  1.00  1.00  1.00 -1.00 -1.00 -1.00 -1.00
B_1u   1.00  1.00 -1.00 -1.00 -1.00 -1.00  1.00  1.00
B_2u   1.00 -1.00  1.00 -1.00 -1.00  1.00 -1.00  1.00
B_3u   1.00 -1.00 -1.00  1.00 -1.00  1.00  1.00 -1.00

     the symmetry operations in each class and the name of the first element:

     E        1
          identity                                               
     C2       2
          180 deg rotation - cart. axis [0,0,1]                  
     C2'      4
          180 deg rotation - cart. axis [1,-1,0]                 
     C2''     3
          180 deg rotation - cart. axis [1,1,0]                  
     i        5
          inversion                                              
     s_v      6
          inv. 180 deg rotation - cart. axis [0,0,1]             
     s_v'     8
          inv. 180 deg rotation - cart. axis [1,-1,0]            
     s_v''    7
          inv. 180 deg rotation - cart. axis [1,1,0]             

   Cartesian axes

     site n.     atom                  positions (alat units)
         1           Bi  tau(   1) = (   0.0000000   0.0000000   0.0000000  )
         2           Bi  tau(   2) = (   0.5000000   0.5000000   0.0000000  )
         3           Bi  tau(   3) = (   0.5000000   0.0000000   0.0000000  )
         4           Bi  tau(   4) = (   0.0000000   0.5000000   0.5000000  )
         5           Bi  tau(   5) = (   0.0000000   0.0000000   0.5000000  )
         6           Bi  tau(   6) = (   0.5000000   0.5000000   0.5000000  )
         7           Bi  tau(   7) = (   0.5000000   0.0000000   0.5000000  )
         8           Bi  tau(   8) = (   0.0000000   0.5000000   0.0000000  )
         9           Fe2 tau(   9) = (   0.2500000   0.2500000   0.2500000  )
        10           Fe2 tau(  10) = (   0.7500000   0.7500000   0.2500000  )
        11           Fe1 tau(  11) = (   0.7500000   0.2500000   0.2500000  )
        12           Fe1 tau(  12) = (   0.2500000   0.7500000   0.7500000  )
        13           Fe2 tau(  13) = (   0.2500000   0.2500000   0.7500000  )
        14           Fe2 tau(  14) = (   0.7500000   0.7500000   0.7500000  )
        15           Fe1 tau(  15) = (   0.7500000   0.2500000   0.7500000  )
        16           Fe1 tau(  16) = (   0.2500000   0.7500000   0.2500000  )
        17           O   tau(  17) = (   0.2500000   0.2500000   0.0000000  )
        18           O   tau(  18) = (   0.2500000   0.0000000   0.2500000  )
        19           O   tau(  19) = (   0.0000000   0.2500000   0.2500000  )
        20           O   tau(  20) = (   0.7500000   0.7500000   0.0000000  )
        21           O   tau(  21) = (   0.7500000   0.2500000   0.0000000  )
        22           O   tau(  22) = (   0.2500000   0.7500000   0.5000000  )
        23           O   tau(  23) = (   0.2500000   0.2500000   0.5000000  )
        24           O   tau(  24) = (   0.7500000   0.7500000   0.5000000  )
        25           O   tau(  25) = (   0.7500000   0.2500000   0.5000000  )
        26           O   tau(  26) = (   0.2500000   0.7500000   0.0000000  )
        27           O   tau(  27) = (   0.7500000   0.5000000   0.2500000  )
        28           O   tau(  28) = (   0.7500000   0.0000000   0.2500000  )
        29           O   tau(  29) = (   0.2500000   0.5000000   0.7500000  )
        30           O   tau(  30) = (   0.2500000   0.0000000   0.7500000  )
        31           O   tau(  31) = (   0.7500000   0.5000000   0.7500000  )
        32           O   tau(  32) = (   0.7500000   0.0000000   0.7500000  )
        33           O   tau(  33) = (   0.2500000   0.5000000   0.2500000  )
        34           O   tau(  34) = (   0.5000000   0.7500000   0.2500000  )
        35           O   tau(  35) = (   0.5000000   0.2500000   0.2500000  )
        36           O   tau(  36) = (   0.0000000   0.7500000   0.7500000  )
        37           O   tau(  37) = (   0.0000000   0.2500000   0.7500000  )
        38           O   tau(  38) = (   0.5000000   0.7500000   0.7500000  )
        39           O   tau(  39) = (   0.5000000   0.2500000   0.7500000  )
        40           O   tau(  40) = (   0.0000000   0.7500000   0.2500000  )

   Crystallographic axes

     site n.     atom                  positions (cryst. coord.)
         1           Bi  tau(   1) = (  0.0000000  0.0000000  0.0000000  )
         2           Bi  tau(   2) = (  0.5000000  0.5000000  0.0000000  )
         3           Bi  tau(   3) = (  0.5000000  0.0000000  0.0000000  )
         4           Bi  tau(   4) = (  0.0000000  0.5000000  0.5000000  )
         5           Bi  tau(   5) = (  0.0000000  0.0000000  0.5000000  )
         6           Bi  tau(   6) = (  0.5000000  0.5000000  0.5000000  )
         7           Bi  tau(   7) = (  0.5000000  0.0000000  0.5000000  )
         8           Bi  tau(   8) = (  0.0000000  0.5000000  0.0000000  )
         9           Fe2 tau(   9) = (  0.2500000  0.2500000  0.2500000  )
        10           Fe2 tau(  10) = (  0.7500000  0.7500000  0.2500000  )
        11           Fe1 tau(  11) = (  0.7500000  0.2500000  0.2500000  )
        12           Fe1 tau(  12) = (  0.2500000  0.7500000  0.7500000  )
        13           Fe2 tau(  13) = (  0.2500000  0.2500000  0.7500000  )
        14           Fe2 tau(  14) = (  0.7500000  0.7500000  0.7500000  )
        15           Fe1 tau(  15) = (  0.7500000  0.2500000  0.7500000  )
        16           Fe1 tau(  16) = (  0.2500000  0.7500000  0.2500000  )
        17           O   tau(  17) = (  0.2500000  0.2500000  0.0000000  )
        18           O   tau(  18) = (  0.2500000  0.0000000  0.2500000  )
        19           O   tau(  19) = (  0.0000000  0.2500000  0.2500000  )
        20           O   tau(  20) = (  0.7500000  0.7500000  0.0000000  )
        21           O   tau(  21) = (  0.7500000  0.2500000  0.0000000  )
        22           O   tau(  22) = (  0.2500000  0.7500000  0.5000000  )
        23           O   tau(  23) = (  0.2500000  0.2500000  0.5000000  )
        24           O   tau(  24) = (  0.7500000  0.7500000  0.5000000  )
        25           O   tau(  25) = (  0.7500000  0.2500000  0.5000000  )
        26           O   tau(  26) = (  0.2500000  0.7500000  0.0000000  )
        27           O   tau(  27) = (  0.7500000  0.5000000  0.2500000  )
        28           O   tau(  28) = (  0.7500000  0.0000000  0.2500000  )
        29           O   tau(  29) = (  0.2500000  0.5000000  0.7500000  )
        30           O   tau(  30) = (  0.2500000  0.0000000  0.7500000  )
        31           O   tau(  31) = (  0.7500000  0.5000000  0.7500000  )
        32           O   tau(  32) = (  0.7500000  0.0000000  0.7500000  )
        33           O   tau(  33) = (  0.2500000  0.5000000  0.2500000  )
        34           O   tau(  34) = (  0.5000000  0.7500000  0.2500000  )
        35           O   tau(  35) = (  0.5000000  0.2500000  0.2500000  )
        36           O   tau(  36) = (  0.0000000  0.7500000  0.7500000  )
        37           O   tau(  37) = (  0.0000000  0.2500000  0.7500000  )
        38           O   tau(  38) = (  0.5000000  0.7500000  0.7500000  )
        39           O   tau(  39) = (  0.5000000  0.2500000  0.7500000  )
        40           O   tau(  40) = (  0.0000000  0.7500000  0.2500000  )

     number of k points=     8  Methfessel-Paxton smearing, width (Ry)=  0.0100
                       cart. coord. in units 2pi/alat
        k(    1) = (   0.0000000   0.0000000   0.0000000), wk =   0.0370370
        k(    2) = (   0.0000000   0.0000000   0.3333333), wk =   0.0740741
        k(    3) = (   0.0000000   0.3333333   0.3333333), wk =   0.2962963
        k(    4) = (   0.3333333   0.3333333   0.3333333), wk =   0.1481481
        k(    5) = (   0.3333333   0.0000000   0.0000000), wk =   0.1481481
        k(    6) = (   0.3333333  -0.3333333   0.0000000), wk =   0.0740741
        k(    7) = (  -0.3333333  -0.3333333   0.0000000), wk =   0.0740741
        k(    8) = (   0.3333333  -0.3333333   0.3333333), wk =   0.1481481

                       cryst. coord.
        k(    1) = (   0.0000000   0.0000000   0.0000000), wk =   0.0370370
        k(    2) = (   0.0000000   0.0000000   0.3333333), wk =   0.0740741
        k(    3) = (   0.0000000   0.3333333   0.3333333), wk =   0.2962963
        k(    4) = (   0.3333333   0.3333333   0.3333333), wk =   0.1481481
        k(    5) = (   0.3333333   0.0000000   0.0000000), wk =   0.1481481
        k(    6) = (   0.3333333  -0.3333333   0.0000000), wk =   0.0740741
        k(    7) = (  -0.3333333  -0.3333333   0.0000000), wk =   0.0740741
        k(    8) = (   0.3333333  -0.3333333   0.3333333), wk =   0.1481481

     Dense  grid:   208345 G-vectors     FFT dimensions: (  75,  75,  75)

     Smooth grid:    73525 G-vectors     FFT dimensions: (  54,  54,  54)

     Dynamical RAM for                 wfc:       8.25 MB

     Dynamical RAM for     wfc (w. buffer):     140.27 MB

     Dynamical RAM for           str. fact:       3.18 MB

     Dynamical RAM for           local pot:       0.00 MB

     Dynamical RAM for          nlocal pot:      21.07 MB

     Dynamical RAM for                qrad:       4.98 MB

     Dynamical RAM for          rho,v,vnew:       9.66 MB

     Dynamical RAM for               rhoin:       3.22 MB

     Dynamical RAM for            rho*nmix:      25.43 MB

     Dynamical RAM for           G-vectors:       3.12 MB

     Dynamical RAM for          h,s,v(r/c):       0.63 MB

     Dynamical RAM for          <psi|beta>:       2.15 MB

     Dynamical RAM for      wfcinit/wfcrot:      20.80 MB

     Dynamical RAM for           addusdens:     167.70 MB

     Estimated static dynamical RAM per process >     219.79 MB

     Estimated max dynamical RAM per process >     387.49 MB

     Estimated total dynamical RAM >       1.51 GB

     Check: negative core charge=   -0.000014
     Generating pointlists ...
     new r_m :   0.1031 (alat units)  1.5380 (a.u.) for type    1
     new r_m :   0.1458 (alat units)  2.1750 (a.u.) for type    2
     new r_m :   0.1031 (alat units)  1.5380 (a.u.) for type    3
     new r_m :   0.1031 (alat units)  1.5380 (a.u.) for type    4

     Initial potential from superposition of free atoms

     starting charge  375.99958, renormalised to  392.00000

     negative rho (up, down):  1.729E-01 1.729E-01
     Starting wfcs are  272 randomized atomic wfcs

     total cpu time spent up to now is      115.5 secs

     Self-consistent Calculation

     iteration #  1     ecut=    30.00 Ry     beta= 0.40
     CG style diagonalization
     ethr =  1.00E-02,  avg # of iterations =  2.4

     negative rho (up, down):  1.593E-01 1.593E-01

     total cpu time spent up to now is      490.3 secs

     total energy              =   -4250.25789380 Ry
     estimated scf accuracy    <      31.19793583 Ry

     total magnetization       =    -0.00 Bohr mag/cell
     absolute magnetization    =    39.97 Bohr mag/cell

     iteration #  2     ecut=    30.00 Ry     beta= 0.40
     CG style diagonalization
     ethr =  7.96E-03,  avg # of iterations =  3.5

     negative rho (up, down):  1.593E-01 1.593E-01

     total cpu time spent up to now is      989.0 secs

     total energy              =   -4256.25723741 Ry
     estimated scf accuracy    <       9.12706620 Ry

     total magnetization       =     0.00 Bohr mag/cell
     absolute magnetization    =    37.03 Bohr mag/cell

     iteration #  3     ecut=    30.00 Ry     beta= 0.40
     CG style diagonalization
     ethr =  2.33E-03,  avg # of iterations =  3.3

     negative rho (up, down):  1.562E-01 1.562E-01

     total cpu time spent up to now is     1455.0 secs

     total energy              =   -4258.83603537 Ry
     estimated scf accuracy    <       2.92527186 Ry

     total magnetization       =    -0.00 Bohr mag/cell
     absolute magnetization    =    36.71 Bohr mag/cell

     iteration #  4     ecut=    30.00 Ry     beta= 0.40
     CG style diagonalization
     ethr =  7.46E-04,  avg # of iterations =  3.2

     negative rho (up, down):  1.578E-01 1.578E-01

     total cpu time spent up to now is     1884.7 secs

     total energy              =   -4259.11959571 Ry
     estimated scf accuracy    <       0.20364888 Ry

     total magnetization       =    -0.00 Bohr mag/cell
     absolute magnetization    =    34.40 Bohr mag/cell

     iteration #  5     ecut=    30.00 Ry     beta= 0.40
     CG style diagonalization
     c_bands:  1 eigenvalues not converged
     c_bands:  1 eigenvalues not converged
     ethr =  5.20E-05,  avg # of iterations =  3.9

     negative rho (up, down):  1.579E-01 1.578E-01

     total cpu time spent up to now is     2433.5 secs

     total energy              =   -4259.20053486 Ry
     estimated scf accuracy    <       0.41584666 Ry

     total magnetization       =    -0.09 Bohr mag/cell
     absolute magnetization    =    33.26 Bohr mag/cell

     iteration #  6     ecut=    30.00 Ry     beta= 0.40
     CG style diagonalization
     ethr =  5.20E-05,  avg # of iterations =  3.2

     negative rho (up, down):  1.580E-01 1.580E-01

     total cpu time spent up to now is     2877.6 secs

     total energy              =   -4259.22111234 Ry
     estimated scf accuracy    <       0.04556678 Ry

     total magnetization       =    -0.08 Bohr mag/cell
     absolute magnetization    =    33.24 Bohr mag/cell

     iteration #  7     ecut=    30.00 Ry     beta= 0.40
     CG style diagonalization
     c_bands:  1 eigenvalues not converged
     c_bands:  1 eigenvalues not converged
     ethr =  1.16E-05,  avg # of iterations =  3.5

     negative rho (up, down):  1.580E-01 1.581E-01

     total cpu time spent up to now is     3336.0 secs

     total energy              =   -4259.21644986 Ry
     estimated scf accuracy    <       0.46667041 Ry

     total magnetization       =     0.84 Bohr mag/cell
     absolute magnetization    =    31.77 Bohr mag/cell

     iteration #  8     ecut=    30.00 Ry     beta= 0.40
     CG style diagonalization
     c_bands:  1 eigenvalues not converged
     c_bands:  1 eigenvalues not converged
     ethr =  1.16E-05,  avg # of iterations =  3.2

     negative rho (up, down):  1.580E-01 1.581E-01

     total cpu time spent up to now is     3762.7 secs

     total energy              =   -4259.23179914 Ry
     estimated scf accuracy    <       0.01224718 Ry

     total magnetization       =    -0.10 Bohr mag/cell
     absolute magnetization    =    32.45 Bohr mag/cell

     iteration #  9     ecut=    30.00 Ry     beta= 0.40
     CG style diagonalization
     c_bands:  1 eigenvalues not converged
     c_bands:  1 eigenvalues not converged
     c_bands:  1 eigenvalues not converged
     ethr =  3.12E-06,  avg # of iterations =  3.2

     negative rho (up, down):  1.580E-01 1.580E-01

     total cpu time spent up to now is     4208.5 secs

     total energy              =   -4259.23189706 Ry
     estimated scf accuracy    <       0.00464688 Ry

     total magnetization       =     0.00 Bohr mag/cell
     absolute magnetization    =    32.40 Bohr mag/cell

     iteration # 10     ecut=    30.00 Ry     beta= 0.40
     CG style diagonalization
     c_bands:  1 eigenvalues not converged
     c_bands:  1 eigenvalues not converged
     c_bands:  1 eigenvalues not converged
     c_bands:  1 eigenvalues not converged
     ethr =  1.19E-06,  avg # of iterations =  3.4

     negative rho (up, down):  1.580E-01 1.580E-01

     total cpu time spent up to now is     4684.4 secs

     total energy              =   -4259.23267038 Ry
     estimated scf accuracy    <       0.00254949 Ry

     total magnetization       =     0.02 Bohr mag/cell
     absolute magnetization    =    32.55 Bohr mag/cell

     iteration # 11     ecut=    30.00 Ry     beta= 0.40
     CG style diagonalization
     ethr =  6.50E-07,  avg # of iterations =  3.3

     negative rho (up, down):  1.580E-01 1.580E-01

     total cpu time spent up to now is     5147.7 secs

     total energy              =   -4259.23302011 Ry
     estimated scf accuracy    <       0.00023771 Ry

     total magnetization       =    -0.02 Bohr mag/cell
     absolute magnetization    =    32.56 Bohr mag/cell

     iteration # 12     ecut=    30.00 Ry     beta= 0.40
     CG style diagonalization
     ethr =  6.06E-08,  avg # of iterations =  3.5

     negative rho (up, down):  1.580E-01 1.580E-01

     total cpu time spent up to now is     5654.3 secs

     total energy              =   -4259.23306753 Ry
     estimated scf accuracy    <       0.00004725 Ry

     total magnetization       =    -0.01 Bohr mag/cell
     absolute magnetization    =    32.57 Bohr mag/cell

     iteration # 13     ecut=    30.00 Ry     beta= 0.40
     CG style diagonalization
     ethr =  1.21E-08,  avg # of iterations =  3.5

     negative rho (up, down):  1.580E-01 1.580E-01

     total cpu time spent up to now is     6058.8 secs

     total energy              =   -4259.23308223 Ry
     estimated scf accuracy    <       0.00001990 Ry

     total magnetization       =    -0.01 Bohr mag/cell
     absolute magnetization    =    32.59 Bohr mag/cell

     iteration # 14     ecut=    30.00 Ry     beta= 0.40
     CG style diagonalization
     ethr =  5.08E-09,  avg # of iterations =  3.3

     negative rho (up, down):  1.579E-01 1.580E-01

     Magnetic moment per site:
     atom:    1    charge:   11.7801    magn:   -0.0001    constr:    0.0000
     atom:    2    charge:   11.7810    magn:   -0.0001    constr:    0.0000
     atom:    3    charge:   11.7804    magn:   -0.0001    constr:    0.0000
     atom:    4    charge:   11.7809    magn:   -0.0001    constr:    0.0000
     atom:    5    charge:   11.7804    magn:   -0.0001    constr:    0.0000
     atom:    6    charge:   11.7812    magn:   -0.0001    constr:    0.0000
     atom:    7    charge:   11.7809    magn:   -0.0001    constr:    0.0000
     atom:    8    charge:   11.7804    magn:   -0.0001    constr:    0.0000
     atom:    9    charge:   13.0371    magn:    3.5068    constr:    0.0000
     atom:   10    charge:   13.0371    magn:    3.5068    constr:    0.0000
     atom:   11    charge:   13.0372    magn:   -3.5077    constr:    0.0000
     atom:   12    charge:   13.0372    magn:   -3.5077    constr:    0.0000
     atom:   13    charge:   13.0371    magn:    3.5068    constr:    0.0000
     atom:   14    charge:   13.0371    magn:    3.5068    constr:    0.0000
     atom:   15    charge:   13.0372    magn:   -3.5077    constr:    0.0000
     atom:   16    charge:   13.0372    magn:   -3.5077    constr:    0.0000
     atom:   17    charge:    5.3622    magn:    0.1362    constr:    0.0000
     atom:   18    charge:    5.3613    magn:   -0.0001    constr:    0.0000
     atom:   19    charge:    5.3613    magn:   -0.0001    constr:    0.0000
     atom:   20    charge:    5.3622    magn:    0.1362    constr:    0.0000
     atom:   21    charge:    5.3621    magn:   -0.1364    constr:    0.0000
     atom:   22    charge:    5.3640    magn:   -0.1364    constr:    0.0000
     atom:   23    charge:    5.3641    magn:    0.1363    constr:    0.0000
     atom:   24    charge:    5.3641    magn:    0.1363    constr:    0.0000
     atom:   25    charge:    5.3640    magn:   -0.1364    constr:    0.0000
     atom:   26    charge:    5.3621    magn:   -0.1364    constr:    0.0000
     atom:   27    charge:    5.3633    magn:   -0.0001    constr:    0.0000
     atom:   28    charge:    5.3613    magn:   -0.0001    constr:    0.0000
     atom:   29    charge:    5.3633    magn:   -0.0001    constr:    0.0000
     atom:   30    charge:    5.3613    magn:   -0.0001    constr:    0.0000
     atom:   31    charge:    5.3633    magn:   -0.0001    constr:    0.0000
     atom:   32    charge:    5.3613    magn:   -0.0001    constr:    0.0000
     atom:   33    charge:    5.3633    magn:   -0.0001    constr:    0.0000
     atom:   34    charge:    5.3633    magn:   -0.0001    constr:    0.0000
     atom:   35    charge:    5.3633    magn:   -0.0001    constr:    0.0000
     atom:   36    charge:    5.3613    magn:   -0.0001    constr:    0.0000
     atom:   37    charge:    5.3613    magn:   -0.0001    constr:    0.0000
     atom:   38    charge:    5.3633    magn:   -0.0001    constr:    0.0000
     atom:   39    charge:    5.3633    magn:   -0.0001    constr:    0.0000
     atom:   40    charge:    5.3613    magn:   -0.0001    constr:    0.0000

     total cpu time spent up to now is     6430.3 secs

     End of self-consistent calculation

 ------ SPIN UP ------------


          k = 0.0000 0.0000 0.0000 (  9171 PWs)   bands (ev):

   -78.1974 -78.1971 -78.1967 -78.1967 -73.5139 -73.5136 -73.5133 -73.5133
   -44.2724 -44.2698 -44.2678 -44.2662 -44.1228 -44.1228 -44.1218 -44.1217
   -44.1186 -44.1186 -44.1185 -44.1185 -39.7066 -39.7043 -39.7036 -39.7023
   -39.5777 -39.5777 -39.5767 -39.5767 -39.5739 -39.5739 -39.5739 -39.5739
   -11.7831 -11.7806 -11.7725 -11.7722 -11.7706 -11.7698 -11.7698 -11.7698
   -11.7693 -11.7660 -11.7660 -11.7523 -11.7522 -11.7496 -11.7419 -11.7419
   -11.7392 -11.7364 -11.7364 -11.7355 -11.7355 -11.7343 -11.7339 -11.7339
   -11.7335 -11.7331 -11.7328 -11.7327 -11.7324 -11.7221 -11.7214 -11.7195
   -11.7195 -11.7188 -11.7181 -11.7147 -11.7130 -11.7120 -11.7120 -11.7093
    -7.0646  -6.3946  -6.2887  -6.2473  -5.7543  -5.7046  -5.6707  -5.6581
    -5.6581  -5.6275  -5.6224  -5.4853  -5.4853  -5.4850  -5.4850  -5.4127
    -5.3380  -5.3234  -5.3234  -5.2737  -5.1815  -5.1774  -5.1702  -5.1303
     0.8312   0.8312   0.8364   1.2194   1.2234   1.2234   1.8635   2.0116
     5.2415   5.3196   5.3196   5.3722   5.5303   5.7063   5.7113   5.8019
     5.9661   6.3436   6.4108   6.4996   6.5259   6.5498   6.5771   6.5771
     7.0636   7.0770   7.0809   7.3118   7.3118   7.3552   7.3552   7.4238
     7.4983   7.4983   7.5670   7.6590   7.6590   7.6902   7.6902   7.7048
     7.7193   7.7246   7.7246   7.7268   7.7268   7.7420   7.7447   7.7447
     7.8102   8.0108   8.3744   8.4531   8.4531   8.6703   8.6882   8.6882
     9.0804   9.3994   9.3994   9.4155   9.4458   9.4458   9.7578   9.7578
     9.7612   9.7612   9.7700   9.8674  10.0162  10.0382  10.0382  10.0541
    10.0541  10.0864  10.0924  10.1413  10.1762  10.1762  10.2204  10.2204
    10.2353  10.3434  10.3530  10.3530  10.3654  10.7249  10.7249  10.7272
    10.8848  10.8848  10.9102  10.9193  10.9193  10.9277  11.2763  11.2888
    11.2925  11.3963  12.0625  12.1565  12.2536  12.5492  12.9239  13.0043
    13.0043  13.0397  13.0418  13.0418  13.3675  13.4581  13.4582  13.5457
    13.5872  13.7240  13.7346  13.7346  13.7763  13.7859  13.7887  14.0744
    14.7119  14.7497  14.7497  14.7525  14.7731  14.7739  14.7739  15.2788
    15.2804  15.2811  15.2936  15.2936  15.2986  15.3990  16.2721  16.2835
    16.4652  16.4652  16.4742

     occupation numbers 
     1.0000   1.0000   1.0000   1.0000   1.0000   1.0000   1.0000   1.0000
     1.0000   1.0000   1.0000   1.0000   1.0000   1.0000   1.0000   1.0000
     1.0000   1.0000   1.0000   1.0000   1.0000   1.0000   1.0000   1.0000
     1.0000   1.0000   1.0000   1.0000   1.0000   1.0000   1.0000   1.0000
     1.0000   1.0000   1.0000   1.0000   1.0000   1.0000   1.0000   1.0000
     1.0000   1.0000   1.0000   1.0000   1.0000   1.0000   1.0000   1.0000
     1.0000   1.0000   1.0000   1.0000   1.0000   1.0000   1.0000   1.0000
     1.0000   1.0000   1.0000   1.0000   1.0000   1.0000   1.0000   1.0000
     1.0000   1.0000   1.0000   1.0000   1.0000   1.0000   1.0000   1.0000
     1.0000   1.0000   1.0000   1.0000   1.0000   1.0000   1.0000   1.0000
     1.0000   1.0000   1.0000   1.0000   1.0000   1.0000   1.0000   1.0000
     1.0000   1.0000   1.0000   1.0000   1.0000   1.0000   1.0000   1.0000
     1.0000   1.0000   1.0000   1.0000   1.0000   1.0000   1.0000   1.0000
     1.0000   1.0000   1.0000   1.0000   1.0000   1.0000   1.0000   1.0000
     1.0000   1.0000   1.0000   1.0000   1.0000   1.0000   1.0000   1.0000
     1.0000   1.0000   1.0000   1.0000   1.0000   1.0000   1.0000   1.0000
     1.0000   1.0000   1.0000   1.0000   1.0000   1.0000   1.0000   1.0000
     1.0000   1.0000   1.0000   1.0000   1.0000   1.0000   1.0000   1.0000
     1.0000   1.0000   1.0000   1.0000   1.0000   1.0000   1.0000   1.0000
     1.0000   1.0000   1.0000   1.0000   1.0000   1.0000   1.0000   1.0000
     1.0000   1.0000   1.0000   1.0000   1.0000   1.0000   1.0000   1.0000
     1.0000   1.0000   1.0000   1.0000   1.0000   1.0000   1.0000   1.0000
     1.0000   1.0000   1.0000   1.0000   1.0000   1.0000   1.0000   1.0000
     1.0000   1.0000   1.0000   1.0000   1.0000   1.0000   1.0000   1.0000
     1.0000   1.0000   1.0000   1.0000   1.0000   1.0016   0.2370  -0.0149
    -0.0149  -0.0351  -0.0353  -0.0353  -0.0000  -0.0000  -0.0000  -0.0000
    -0.0000  -0.0000  -0.0000  -0.0000  -0.0000  -0.0000  -0.0000  -0.0000
    -0.0000  -0.0000  -0.0000  -0.0000  -0.0000  -0.0000  -0.0000  -0.0000
    -0.0000  -0.0000  -0.0000  -0.0000  -0.0000  -0.0000  -0.0000  -0.0000
    -0.0000  -0.0000  -0.0000

          k = 0.0000 0.0000 0.3333 (  9142 PWs)   bands (ev):

   -78.1970 -78.1969 -78.1969 -78.1968 -73.5135 -73.5135 -73.5135 -73.5134
   -44.2702 -44.2696 -44.2689 -44.2681 -44.1203 -44.1203 -44.1199 -44.1198
   -44.1196 -44.1196 -44.1189 -44.1189 -39.7055 -39.7044 -39.7037 -39.7037
   -39.5755 -39.5755 -39.5751 -39.5751 -39.5748 -39.5748 -39.5743 -39.5743
   -11.7803 -11.7749 -11.7738 -11.7705 -11.7681 -11.7637 -11.7637 -11.7616
   -11.7608 -11.7579 -11.7579 -11.7553 -11.7553 -11.7492 -11.7435 -11.7427
   -11.7412 -11.7412 -11.7398 -11.7374 -11.7374 -11.7359 -11.7359 -11.7348
   -11.7347 -11.7303 -11.7303 -11.7295 -11.7288 -11.7230 -11.7230 -11.7227
   -11.7224 -11.7217 -11.7216 -11.7207 -11.7207 -11.7183 -11.7144 -11.7134
    -6.9300  -6.5804  -6.2791  -6.1374  -5.9860  -5.8622  -5.6414  -5.6166
    -5.6166  -5.5873  -5.5302  -5.5302  -5.4455  -5.4455  -5.4063  -5.3646
    -5.3646  -5.3559  -5.2980  -5.2597  -5.2371  -5.1754  -5.1719  -5.1554
     0.9330   0.9330   1.0301   1.1291   1.1292   1.3771   1.5217   1.7681
     5.4925   5.6269   5.6269   5.7332   5.8099   5.9140   5.9378   5.9700
     6.0496   6.3586   6.3894   6.4514   6.4514   6.5054   6.5127   6.6029
     6.7693   6.7693   6.8764   7.0996   7.0996   7.1113   7.1522   7.1570
     7.1571   7.1723   7.1723   7.2329   7.2423   7.3307   7.4922   7.6230
     7.8186   7.8186   7.9204   7.9205   8.0610   8.1572   8.2015   8.2015
     8.2448   8.4422   8.4422   8.4818   8.5422   8.5422   8.9529   8.9529
     8.9901   9.1495   9.1725   9.1725   9.3762   9.3983   9.4634   9.4793
     9.4793   9.4972   9.6242   9.6872   9.7857   9.7857   9.9251   9.9251
    10.0217  10.0217  10.0794  10.0794  10.1496  10.1496  10.3230  10.3230
    10.4328  10.4495  10.4495  10.5318  10.5318  10.6064  10.6795  10.6795
    10.7604  10.7604  10.9089  10.9231  11.2922  11.2930  11.2984  11.3341
    11.3432  11.3837  12.2364  12.4223  12.9758  13.0511  13.0535  13.0541
    13.0541  13.1219  13.2027  13.2027  13.2752  13.2753  13.3438  13.5512
    13.5579  13.5579  13.5633  14.1687  14.1828  14.2028  14.2338  14.3879
    14.7913  14.8459  14.8680  14.8680  14.9122  14.9262  15.1181  15.1181
    15.1186  15.1186  15.1863  15.2325  15.5167  15.5572  15.5572  15.8475
    15.8944  16.1476  16.1476

     occupation numbers 
     1.0000   1.0000   1.0000   1.0000   1.0000   1.0000   1.0000   1.0000
     1.0000   1.0000   1.0000   1.0000   1.0000   1.0000   1.0000   1.0000
     1.0000   1.0000   1.0000   1.0000   1.0000   1.0000   1.0000   1.0000
     1.0000   1.0000   1.0000   1.0000   1.0000   1.0000   1.0000   1.0000
     1.0000   1.0000   1.0000   1.0000   1.0000   1.0000   1.0000   1.0000
     1.0000   1.0000   1.0000   1.0000   1.0000   1.0000   1.0000   1.0000
     1.0000   1.0000   1.0000   1.0000   1.0000   1.0000   1.0000   1.0000
     1.0000   1.0000   1.0000   1.0000   1.0000   1.0000   1.0000   1.0000
     1.0000   1.0000   1.0000   1.0000   1.0000   1.0000   1.0000   1.0000
     1.0000   1.0000   1.0000   1.0000   1.0000   1.0000   1.0000   1.0000
     1.0000   1.0000   1.0000   1.0000   1.0000   1.0000   1.0000   1.0000
     1.0000   1.0000   1.0000   1.0000   1.0000   1.0000   1.0000   1.0000
     1.0000   1.0000   1.0000   1.0000   1.0000   1.0000   1.0000   1.0000
     1.0000   1.0000   1.0000   1.0000   1.0000   1.0000   1.0000   1.0000
     1.0000   1.0000   1.0000   1.0000   1.0000   1.0000   1.0000   1.0000
     1.0000   1.0000   1.0000   1.0000   1.0000   1.0000   1.0000   1.0000
     1.0000   1.0000   1.0000   1.0000   1.0000   1.0000   1.0000   1.0000
     1.0000   1.0000   1.0000   1.0000   1.0000   1.0000   1.0000   1.0000
     1.0000   1.0000   1.0000   1.0000   1.0000   1.0000   1.0000   1.0000
     1.0000   1.0000   1.0000   1.0000   1.0000   1.0000   1.0000   1.0000
     1.0000   1.0000   1.0000   1.0000   1.0000   1.0000   1.0000   1.0000
     1.0000   1.0000   1.0000   1.0000   1.0000   1.0000   1.0000   1.0000
     1.0000   1.0000   1.0000   1.0000   1.0000   1.0000   1.0000   1.0000
     1.0000   1.0000   1.0000   1.0000   1.0000   1.0000   1.0000   1.0000
     1.0000   1.0000   1.0000   1.0000   0.0363  -0.0352  -0.0350  -0.0349
    -0.0349  -0.0150  -0.0020  -0.0020  -0.0002  -0.0002  -0.0000  -0.0000
    -0.0000  -0.0000  -0.0000  -0.0000  -0.0000  -0.0000  -0.0000  -0.0000
    -0.0000  -0.0000  -0.0000  -0.0000  -0.0000  -0.0000  -0.0000  -0.0000
    -0.0000  -0.0000  -0.0000  -0.0000  -0.0000  -0.0000  -0.0000  -0.0000
    -0.0000  -0.0000  -0.0000

          k = 0.0000 0.3333 0.3333 (  9198 PWs)   bands (ev):

   -78.1971 -78.1971 -78.1970 -78.1969 -73.5136 -73.5136 -73.5136 -73.5135
   -44.2704 -44.2698 -44.2693 -44.2691 -44.1218 -44.1215 -44.1214 -44.1213
   -44.1206 -44.1203 -44.1203 -44.1194 -39.7057 -39.7047 -39.7046 -39.7040
   -39.5767 -39.5765 -39.5764 -39.5763 -39.5758 -39.5754 -39.5754 -39.5747
   -11.7739 -11.7683 -11.7667 -11.7657 -11.7621 -11.7612 -11.7604 -11.7594
   -11.7586 -11.7554 -11.7529 -11.7509 -11.7471 -11.7455 -11.7447 -11.7441
   -11.7440 -11.7434 -11.7425 -11.7417 -11.7379 -11.7379 -11.7366 -11.7366
   -11.7343 -11.7324 -11.7319 -11.7300 -11.7295 -11.7294 -11.7280 -11.7271
   -11.7261 -11.7253 -11.7240 -11.7228 -11.7222 -11.7219 -11.7197 -11.7176
    -6.8019  -6.4789  -6.4620  -6.1684  -6.0945  -5.8460  -5.8334  -5.6585
    -5.5754  -5.4899  -5.4898  -5.4676  -5.4587  -5.4394  -5.4070  -5.3685
    -5.3245  -5.2932  -5.2783  -5.2594  -5.2281  -5.2055  -5.1965  -5.1650
     1.0394   1.0613   1.0643   1.1134   1.2623   1.2644   1.3529   1.5827
     5.6600   5.7160   5.8580   5.9260   5.9285   5.9752   6.0108   6.0476
     6.3692   6.3821   6.4195   6.4268   6.4639   6.5457   6.5677   6.6143
     6.6196   6.6772   6.7566   6.7821   6.8935   6.9320   7.1022   7.1139
     7.1570   7.2254   7.2322   7.2693   7.3976   7.5046   7.5641   7.5789
     7.5819   7.6422   7.6443   7.7241   7.7648   7.8118   8.1963   8.2800
     8.2883   8.3342   8.5490   8.6085   8.7306   8.7399   8.8817   8.9299
     8.9485   9.0085   9.0742   9.1205   9.2032   9.3982   9.4015   9.4917
     9.5186   9.5771   9.6012   9.7226   9.8930   9.8990   9.9097   9.9349
     9.9797  10.0414  10.0426  10.1614  10.1705  10.1866  10.2221  10.2468
    10.2592  10.3644  10.3651  10.4317  10.4431  10.5249  10.5535  10.5991
    10.6319  10.6749  10.7297  10.7298  11.3124  11.3139  11.6360  11.6510
    11.9117  11.9415  12.6000  12.6919  12.9431  12.9861  13.0802  13.1082
    13.1496  13.2039  13.2301  13.2958  13.3574  13.3627  13.3925  13.4532
    13.4831  13.5099  13.7190  13.9218  14.4321  14.4666  14.5099  14.5151
    14.5385  14.6371  14.6515  14.6594  14.6712  15.0012  15.0179  15.1732
    15.2098  15.2134  15.3023  15.3144  15.4208  15.4732  15.4823  15.5767
    15.7068  15.8241  16.0588

     occupation numbers 
     1.0000   1.0000   1.0000   1.0000   1.0000   1.0000   1.0000   1.0000
     1.0000   1.0000   1.0000   1.0000   1.0000   1.0000   1.0000   1.0000
     1.0000   1.0000   1.0000   1.0000   1.0000   1.0000   1.0000   1.0000
     1.0000   1.0000   1.0000   1.0000   1.0000   1.0000   1.0000   1.0000
     1.0000   1.0000   1.0000   1.0000   1.0000   1.0000   1.0000   1.0000
     1.0000   1.0000   1.0000   1.0000   1.0000   1.0000   1.0000   1.0000
     1.0000   1.0000   1.0000   1.0000   1.0000   1.0000   1.0000   1.0000
     1.0000   1.0000   1.0000   1.0000   1.0000   1.0000   1.0000   1.0000
     1.0000   1.0000   1.0000   1.0000   1.0000   1.0000   1.0000   1.0000
     1.0000   1.0000   1.0000   1.0000   1.0000   1.0000   1.0000   1.0000
     1.0000   1.0000   1.0000   1.0000   1.0000   1.0000   1.0000   1.0000
     1.0000   1.0000   1.0000   1.0000   1.0000   1.0000   1.0000   1.0000
     1.0000   1.0000   1.0000   1.0000   1.0000   1.0000   1.0000   1.0000
     1.0000   1.0000   1.0000   1.0000   1.0000   1.0000   1.0000   1.0000
     1.0000   1.0000   1.0000   1.0000   1.0000   1.0000   1.0000   1.0000
     1.0000   1.0000   1.0000   1.0000   1.0000   1.0000   1.0000   1.0000
     1.0000   1.0000   1.0000   1.0000   1.0000   1.0000   1.0000   1.0000
     1.0000   1.0000   1.0000   1.0000   1.0000   1.0000   1.0000   1.0000
     1.0000   1.0000   1.0000   1.0000   1.0000   1.0000   1.0000   1.0000
     1.0000   1.0000   1.0000   1.0000   1.0000   1.0000   1.0000   1.0000
     1.0000   1.0000   1.0000   1.0000   1.0000   1.0000   1.0000   1.0000
     1.0000   1.0000   1.0000   1.0000   1.0000   1.0000   1.0000   1.0000
     1.0000   1.0000   1.0000   1.0000   1.0000   1.0000   1.0000   1.0000
     1.0000   1.0000   1.0000   1.0000   1.0000   1.0000   1.0000   1.0000
     1.0000   1.0000   1.0068   1.0326   0.1463   0.0134  -0.0286  -0.0192
    -0.0083  -0.0019  -0.0008  -0.0001  -0.0000  -0.0000  -0.0000  -0.0000
    -0.0000  -0.0000  -0.0000  -0.0000  -0.0000  -0.0000  -0.0000  -0.0000
    -0.0000  -0.0000  -0.0000  -0.0000  -0.0000  -0.0000  -0.0000  -0.0000
    -0.0000  -0.0000  -0.0000  -0.0000  -0.0000  -0.0000  -0.0000  -0.0000
    -0.0000  -0.0000  -0.0000

          k = 0.3333 0.3333 0.3333 (  9255 PWs)   bands (ev):

   -78.1973 -78.1972 -78.1972 -78.1970 -73.5138 -73.5137 -73.5137 -73.5136
   -44.2711 -44.2705 -44.2705 -44.2694 -44.1226 -44.1225 -44.1222 -44.1221
   -44.1218 -44.1216 -44.1209 -44.1203 -39.7058 -39.7057 -39.7052 -39.7048
   -39.5774 -39.5774 -39.5771 -39.5770 -39.5767 -39.5766 -39.5759 -39.5754
   -11.7644 -11.7620 -11.7602 -11.7584 -11.7577 -11.7554 -11.7549 -11.7541
   -11.7534 -11.7519 -11.7513 -11.7484 -11.7478 -11.7460 -11.7447 -11.7434
   -11.7414 -11.7407 -11.7404 -11.7394 -11.7389 -11.7377 -11.7376 -11.7376
   -11.7372 -11.7370 -11.7369 -11.7367 -11.7367 -11.7304 -11.7302 -11.7300
   -11.7288 -11.7282 -11.7278 -11.7274 -11.7272 -11.7271 -11.7265 -11.7247
    -6.6782  -6.4121  -6.3490  -6.2973  -6.1071  -6.0655  -6.0148  -5.8187
    -5.4900  -5.4889  -5.4380  -5.3941  -5.3873  -5.3799  -5.3516  -5.3196
    -5.3004  -5.2988  -5.2926  -5.2656  -5.2426  -5.2242  -5.2067  -5.1776
     1.1117   1.1179   1.1184   1.2163   1.2176   1.2203   1.2723   1.4545
     5.8564   5.9083   5.9095   5.9748   6.1426   6.1644   6.2011   6.2490
     6.2561   6.3772   6.4085   6.4134   6.4411   6.5293   6.5620   6.6072
     6.6600   6.6660   6.7560   6.7649   6.7762   6.8841   6.9015   6.9548
     6.9991   7.0133   7.0908   7.2595   7.2768   7.3264   7.3477   7.3708
     7.5672   7.7188   7.8199   7.8251   7.8414   7.9278   8.1334   8.1448
     8.1546   8.1718   8.4438   8.4644   8.5243   8.5931   8.6264   8.7357
     9.2312   9.3189   9.3281   9.3957   9.4669   9.4863   9.4884   9.5889
     9.6398   9.6567   9.6719   9.7127   9.7488   9.8838   9.9002   9.9792
    10.0057  10.0084  10.0231  10.0873  10.1471  10.1694  10.2527  10.2863
    10.3089  10.3147  10.3655  10.4177  10.4260  10.4499  10.4593  10.4953
    10.5029  10.5290  10.5387  10.5870  11.6008  11.6187  12.1751  12.1976
    12.2342  12.2368  12.7128  12.7457  12.8807  12.8845  12.9229  13.0031
    13.0465  13.0659  13.0926  13.0950  13.1935  13.2855  13.2983  13.3213
    13.4760  13.5233  13.5260  13.8345  13.8623  13.9217  13.9848  14.4784
    14.5117  14.5772  15.0123  15.0443  15.0728  15.1043  15.1052  15.2446
    15.2556  15.3519  15.3858  15.4149  15.5239  15.6170  15.6265  15.6463
    15.6989  15.7067  15.7976

     occupation numbers 
     1.0000   1.0000   1.0000   1.0000   1.0000   1.0000   1.0000   1.0000
     1.0000   1.0000   1.0000   1.0000   1.0000   1.0000   1.0000   1.0000
     1.0000   1.0000   1.0000   1.0000   1.0000   1.0000   1.0000   1.0000
     1.0000   1.0000   1.0000   1.0000   1.0000   1.0000   1.0000   1.0000
     1.0000   1.0000   1.0000   1.0000   1.0000   1.0000   1.0000   1.0000
     1.0000   1.0000   1.0000   1.0000   1.0000   1.0000   1.0000   1.0000
     1.0000   1.0000   1.0000   1.0000   1.0000   1.0000   1.0000   1.0000
     1.0000   1.0000   1.0000   1.0000   1.0000   1.0000   1.0000   1.0000
     1.0000   1.0000   1.0000   1.0000   1.0000   1.0000   1.0000   1.0000
     1.0000   1.0000   1.0000   1.0000   1.0000   1.0000   1.0000   1.0000
     1.0000   1.0000   1.0000   1.0000   1.0000   1.0000   1.0000   1.0000
     1.0000   1.0000   1.0000   1.0000   1.0000   1.0000   1.0000   1.0000
     1.0000   1.0000   1.0000   1.0000   1.0000   1.0000   1.0000   1.0000
     1.0000   1.0000   1.0000   1.0000   1.0000   1.0000   1.0000   1.0000
     1.0000   1.0000   1.0000   1.0000   1.0000   1.0000   1.0000   1.0000
     1.0000   1.0000   1.0000   1.0000   1.0000   1.0000   1.0000   1.0000
     1.0000   1.0000   1.0000   1.0000   1.0000   1.0000   1.0000   1.0000
     1.0000   1.0000   1.0000   1.0000   1.0000   1.0000   1.0000   1.0000
     1.0000   1.0000   1.0000   1.0000   1.0000   1.0000   1.0000   1.0000
     1.0000   1.0000   1.0000   1.0000   1.0000   1.0000   1.0000   1.0000
     1.0000   1.0000   1.0000   1.0000   1.0000   1.0000   1.0000   1.0000
     1.0000   1.0000   1.0000   1.0000   1.0000   1.0000   1.0000   1.0000
     1.0000   1.0000   1.0000   1.0000   1.0000   1.0000   1.0000   1.0000
     1.0000   1.0000   1.0000   1.0000   1.0000   1.0000   1.0000   1.0000
     1.0000   1.0000   1.0355   1.0229   0.4898   0.4660   0.2420  -0.0134
    -0.0355  -0.0327  -0.0245  -0.0237  -0.0026  -0.0001  -0.0001  -0.0000
    -0.0000  -0.0000  -0.0000  -0.0000  -0.0000  -0.0000  -0.0000  -0.0000
    -0.0000  -0.0000  -0.0000  -0.0000  -0.0000  -0.0000  -0.0000  -0.0000
    -0.0000  -0.0000  -0.0000  -0.0000  -0.0000  -0.0000  -0.0000  -0.0000
    -0.0000  -0.0000  -0.0000

          k = 0.3333 0.0000 0.0000 (  9142 PWs)   bands (ev):

   -78.1971 -78.1969 -78.1968 -78.1968 -73.5136 -73.5135 -73.5134 -73.5134
   -44.2694 -44.2690 -44.2677 -44.2671 -44.1225 -44.1205 -44.1204 -44.1203
   -44.1201 -44.1192 -44.1191 -44.1189 -39.7040 -39.7036 -39.7036 -39.7032
   -39.5773 -39.5756 -39.5755 -39.5755 -39.5753 -39.5745 -39.5744 -39.5741
   -11.7784 -11.7726 -11.7720 -11.7692 -11.7671 -11.7656 -11.7637 -11.7628
   -11.7612 -11.7610 -11.7578 -11.7558 -11.7530 -11.7520 -11.7456 -11.7441
   -11.7431 -11.7424 -11.7412 -11.7370 -11.7340 -11.7336 -11.7336 -11.7330
   -11.7330 -11.7328 -11.7319 -11.7302 -11.7292 -11.7257 -11.7251 -11.7232
   -11.7230 -11.7221 -11.7221 -11.7203 -11.7192 -11.7186 -11.7115 -11.7105
    -6.9332  -6.6005  -6.2005  -6.1764  -5.9338  -5.8928  -5.7241  -5.6790
    -5.6167  -5.5530  -5.5304  -5.4573  -5.4453  -5.4091  -5.4024  -5.3684
    -5.3666  -5.3645  -5.3075  -5.2780  -5.2272  -5.2018  -5.1677  -5.1407
     0.9319   0.9370   1.0255   1.1261   1.1305   1.3802   1.5191   1.7693
     5.3997   5.5150   5.6247   5.6806   5.7853   5.8317   5.9780   5.9891
     6.0769   6.4252   6.4417   6.4527   6.4922   6.5211   6.6020   6.6799
     6.6989   6.8843   6.9313   6.9896   6.9901   7.0062   7.0196   7.3129
     7.3220   7.3799   7.4003   7.4069   7.4191   7.4785   7.5732   7.6065
     7.6375   7.6559   7.7812   7.7818   7.8755   8.1037   8.1194   8.1913
     8.2175   8.3363   8.3550   8.3817   8.5218   8.5478   8.9015   9.1631
     9.2623   9.2792   9.3103   9.3484   9.3674   9.3798   9.4856   9.4986
     9.4991   9.5059   9.5464   9.5931   9.6587   9.6775   9.9763   9.9888
    10.0491  10.0778  10.1149  10.1255  10.1270  10.2221  10.2334  10.2377
    10.2704  10.3244  10.3460  10.3598  10.4181  10.5611  10.6398  10.6426
    10.6562  10.6694  10.6708  10.6710  10.8842  10.9016  11.6185  11.6736
    11.8092  11.8529  12.9225  12.9279  12.9812  12.9960  13.0097  13.0152
    13.0242  13.1029  13.1948  13.3121  13.3772  13.3934  13.4548  13.4655
    13.4905  13.5040  13.5787  13.7574  13.9947  14.1716  14.1817  14.2326
    14.2333  14.8009  14.8475  14.8562  14.9123  14.9248  14.9465  15.1054
    15.1070  15.1382  15.1454  15.2215  15.2914  15.5647  15.5695  15.8533
    15.8611  16.1501  16.1575

     occupation numbers 
     1.0000   1.0000   1.0000   1.0000   1.0000   1.0000   1.0000   1.0000
     1.0000   1.0000   1.0000   1.0000   1.0000   1.0000   1.0000   1.0000
     1.0000   1.0000   1.0000   1.0000   1.0000   1.0000   1.0000   1.0000
     1.0000   1.0000   1.0000   1.0000   1.0000   1.0000   1.0000   1.0000
     1.0000   1.0000   1.0000   1.0000   1.0000   1.0000   1.0000   1.0000
     1.0000   1.0000   1.0000   1.0000   1.0000   1.0000   1.0000   1.0000
     1.0000   1.0000   1.0000   1.0000   1.0000   1.0000   1.0000   1.0000
     1.0000   1.0000   1.0000   1.0000   1.0000   1.0000   1.0000   1.0000
     1.0000   1.0000   1.0000   1.0000   1.0000   1.0000   1.0000   1.0000
     1.0000   1.0000   1.0000   1.0000   1.0000   1.0000   1.0000   1.0000
     1.0000   1.0000   1.0000   1.0000   1.0000   1.0000   1.0000   1.0000
     1.0000   1.0000   1.0000   1.0000   1.0000   1.0000   1.0000   1.0000
     1.0000   1.0000   1.0000   1.0000   1.0000   1.0000   1.0000   1.0000
     1.0000   1.0000   1.0000   1.0000   1.0000   1.0000   1.0000   1.0000
     1.0000   1.0000   1.0000   1.0000   1.0000   1.0000   1.0000   1.0000
     1.0000   1.0000   1.0000   1.0000   1.0000   1.0000   1.0000   1.0000
     1.0000   1.0000   1.0000   1.0000   1.0000   1.0000   1.0000   1.0000
     1.0000   1.0000   1.0000   1.0000   1.0000   1.0000   1.0000   1.0000
     1.0000   1.0000   1.0000   1.0000   1.0000   1.0000   1.0000   1.0000
     1.0000   1.0000   1.0000   1.0000   1.0000   1.0000   1.0000   1.0000
     1.0000   1.0000   1.0000   1.0000   1.0000   1.0000   1.0000   1.0000
     1.0000   1.0000   1.0000   1.0000   1.0000   1.0000   1.0000   1.0000
     1.0000   1.0000   1.0000   1.0000   1.0000   1.0000   1.0000   1.0000
     1.0000   1.0000   1.0000   1.0000   1.0000   1.0000   1.0000   1.0000
     1.0000   1.0000   0.2442   0.2167   0.0236  -0.0038  -0.0205  -0.0252
    -0.0308  -0.0210  -0.0025  -0.0000  -0.0000  -0.0000  -0.0000  -0.0000
    -0.0000  -0.0000  -0.0000  -0.0000  -0.0000  -0.0000  -0.0000  -0.0000
    -0.0000  -0.0000  -0.0000  -0.0000  -0.0000  -0.0000  -0.0000  -0.0000
    -0.0000  -0.0000  -0.0000  -0.0000  -0.0000  -0.0000  -0.0000  -0.0000
    -0.0000  -0.0000  -0.0000

          k = 0.3333-0.3333 0.0000 (  9198 PWs)   bands (ev):

   -78.1971 -78.1970 -78.1970 -78.1970 -73.5137 -73.5136 -73.5136 -73.5136
   -44.2697 -44.2697 -44.2691 -44.2685 -44.1229 -44.1215 -44.1214 -44.1214
   -44.1209 -44.1202 -44.1202 -44.1199 -39.7049 -39.7043 -39.7042 -39.7042
   -39.5778 -39.5764 -39.5764 -39.5764 -39.5760 -39.5753 -39.5753 -39.5751
   -11.7714 -11.7663 -11.7659 -11.7652 -11.7608 -11.7600 -11.7593 -11.7582
   -11.7581 -11.7577 -11.7542 -11.7539 -11.7473 -11.7470 -11.7464 -11.7460
   -11.7432 -11.7420 -11.7419 -11.7413 -11.7408 -11.7402 -11.7397 -11.7390
   -11.7323 -11.7323 -11.7305 -11.7304 -11.7297 -11.7295 -11.7295 -11.7282
   -11.7279 -11.7228 -11.7228 -11.7226 -11.7219 -11.7194 -11.7186 -11.7153
    -6.8060  -6.5314  -6.4107  -6.1673  -6.0697  -5.8106  -5.7957  -5.6990
    -5.6737  -5.5899  -5.4504  -5.4192  -5.4181  -5.4097  -5.3950  -5.3772
    -5.2986  -5.2909  -5.2892  -5.2855  -5.2517  -5.2149  -5.1796  -5.1561
     1.0433   1.0544   1.0658   1.1098   1.2620   1.2696   1.3513   1.5840
     5.4854   5.5286   5.6601   5.8323   6.0221   6.1100   6.1431   6.2497
     6.2502   6.3211   6.3745   6.4761   6.6377   6.6456   6.7321   6.7959
     6.8137   6.8427   6.8477   6.8781   6.8808   6.8953   6.9101   7.0113
     7.0344   7.0474   7.1752   7.2338   7.3239   7.3583   7.3929   7.4882
     7.7295   7.7305   7.7367   7.9063   7.9239   8.0408   8.1375   8.1721
     8.2926   8.3071   8.3073   8.4120   8.4357   8.7755   9.0172   9.0750
     9.1484   9.2154   9.2298   9.2613   9.2787   9.3251   9.3526   9.4049
     9.5510   9.5542   9.6411   9.6712   9.7319   9.7501   9.8481   9.9240
     9.9382   9.9410  10.0903  10.1974  10.2070  10.2382  10.2394  10.2467
    10.2588  10.2628  10.2658  10.2918  10.4443  10.4657  10.4867  10.6201
    10.6285  10.6537  10.6736  10.6889  10.7045  10.7670  12.1648  12.1819
    12.2552  12.2670  12.8595  12.9716  12.9784  13.0231  13.0336  13.1094
    13.1232  13.2153  13.3543  13.3656  13.3838  13.3965  13.4482  13.4666
    13.4734  13.5236  13.7284  13.7336  13.9389  13.9788  14.4254  14.4587
    14.5261  14.5914  14.6262  14.6554  14.7477  14.9872  15.0025  15.1683
    15.2140  15.2163  15.2188  15.2771  15.3319  15.4297  15.4413  15.5162
    15.5640  15.6999  15.8323

     occupation numbers 
     1.0000   1.0000   1.0000   1.0000   1.0000   1.0000   1.0000   1.0000
     1.0000   1.0000   1.0000   1.0000   1.0000   1.0000   1.0000   1.0000
     1.0000   1.0000   1.0000   1.0000   1.0000   1.0000   1.0000   1.0000
     1.0000   1.0000   1.0000   1.0000   1.0000   1.0000   1.0000   1.0000
     1.0000   1.0000   1.0000   1.0000   1.0000   1.0000   1.0000   1.0000
     1.0000   1.0000   1.0000   1.0000   1.0000   1.0000   1.0000   1.0000
     1.0000   1.0000   1.0000   1.0000   1.0000   1.0000   1.0000   1.0000
     1.0000   1.0000   1.0000   1.0000   1.0000   1.0000   1.0000   1.0000
     1.0000   1.0000   1.0000   1.0000   1.0000   1.0000   1.0000   1.0000
     1.0000   1.0000   1.0000   1.0000   1.0000   1.0000   1.0000   1.0000
     1.0000   1.0000   1.0000   1.0000   1.0000   1.0000   1.0000   1.0000
     1.0000   1.0000   1.0000   1.0000   1.0000   1.0000   1.0000   1.0000
     1.0000   1.0000   1.0000   1.0000   1.0000   1.0000   1.0000   1.0000
     1.0000   1.0000   1.0000   1.0000   1.0000   1.0000   1.0000   1.0000
     1.0000   1.0000   1.0000   1.0000   1.0000   1.0000   1.0000   1.0000
     1.0000   1.0000   1.0000   1.0000   1.0000   1.0000   1.0000   1.0000
     1.0000   1.0000   1.0000   1.0000   1.0000   1.0000   1.0000   1.0000
     1.0000   1.0000   1.0000   1.0000   1.0000   1.0000   1.0000   1.0000
     1.0000   1.0000   1.0000   1.0000   1.0000   1.0000   1.0000   1.0000
     1.0000   1.0000   1.0000   1.0000   1.0000   1.0000   1.0000   1.0000
     1.0000   1.0000   1.0000   1.0000   1.0000   1.0000   1.0000   1.0000
     1.0000   1.0000   1.0000   1.0000   1.0000   1.0000   1.0000   1.0000
     1.0000   1.0000   1.0000   1.0000   1.0000   1.0000   1.0000   1.0000
     1.0000   1.0000   1.0000   1.0000   1.0000   1.0000   1.0000   1.0000
     1.0000   1.0000   0.6202   0.0472   0.0300  -0.0302  -0.0341  -0.0189
    -0.0146  -0.0013  -0.0000  -0.0000  -0.0000  -0.0000  -0.0000  -0.0000
    -0.0000  -0.0000  -0.0000  -0.0000  -0.0000  -0.0000  -0.0000  -0.0000
    -0.0000  -0.0000  -0.0000  -0.0000  -0.0000  -0.0000  -0.0000  -0.0000
    -0.0000  -0.0000  -0.0000  -0.0000  -0.0000  -0.0000  -0.0000  -0.0000
    -0.0000  -0.0000  -0.0000

          k =-0.3333-0.3333 0.0000 (  9198 PWs)   bands (ev):

   -78.1971 -78.1970 -78.1970 -78.1970 -73.5137 -73.5136 -73.5136 -73.5136
   -44.2697 -44.2697 -44.2691 -44.2685 -44.1229 -44.1215 -44.1215 -44.1214
   -44.1209 -44.1202 -44.1202 -44.1199 -39.7049 -39.7043 -39.7042 -39.7042
   -39.5778 -39.5764 -39.5764 -39.5764 -39.5760 -39.5753 -39.5753 -39.5751
   -11.7714 -11.7663 -11.7659 -11.7652 -11.7608 -11.7600 -11.7593 -11.7582
   -11.7581 -11.7577 -11.7542 -11.7539 -11.7473 -11.7470 -11.7464 -11.7460
   -11.7432 -11.7420 -11.7420 -11.7413 -11.7408 -11.7402 -11.7397 -11.7390
   -11.7323 -11.7323 -11.7305 -11.7304 -11.7297 -11.7295 -11.7295 -11.7282
   -11.7279 -11.7228 -11.7227 -11.7226 -11.7219 -11.7193 -11.7186 -11.7153
    -6.8060  -6.5314  -6.4107  -6.1673  -6.0697  -5.8106  -5.7957  -5.6990
    -5.6737  -5.5899  -5.4504  -5.4192  -5.4181  -5.4097  -5.3950  -5.3772
    -5.2986  -5.2909  -5.2892  -5.2855  -5.2517  -5.2149  -5.1796  -5.1561
     1.0433   1.0544   1.0658   1.1098   1.2620   1.2696   1.3513   1.5840
     5.4854   5.5286   5.6601   5.8323   6.0221   6.1100   6.1431   6.2497
     6.2502   6.3211   6.3745   6.4761   6.6377   6.6456   6.7321   6.7959
     6.8137   6.8427   6.8477   6.8781   6.8808   6.8953   6.9101   7.0113
     7.0344   7.0474   7.1752   7.2338   7.3239   7.3583   7.3929   7.4882
     7.7295   7.7305   7.7367   7.9063   7.9239   8.0408   8.1375   8.1722
     8.2926   8.3071   8.3073   8.4120   8.4357   8.7755   9.0172   9.0750
     9.1484   9.2154   9.2298   9.2613   9.2787   9.3250   9.3526   9.4049
     9.5510   9.5542   9.6411   9.6712   9.7319   9.7501   9.8481   9.9240
     9.9382   9.9410  10.0903  10.1974  10.2070  10.2382  10.2394  10.2467
    10.2588  10.2628  10.2658  10.2918  10.4443  10.4657  10.4867  10.6201
    10.6285  10.6537  10.6736  10.6889  10.7045  10.7670  12.1648  12.1819
    12.2552  12.2670  12.8595  12.9716  12.9784  13.0231  13.0336  13.1094
    13.1232  13.2153  13.3543  13.3656  13.3838  13.3964  13.4482  13.4667
    13.4734  13.5236  13.7286  13.7336  13.9389  13.9789  14.4254  14.4588
    14.5261  14.5914  14.6262  14.6555  14.7476  14.9872  15.0026  15.1685
    15.2140  15.2163  15.2188  15.2771  15.3319  15.4296  15.4412  15.5162
    15.5640  15.6999  15.8323

     occupation numbers 
     1.0000   1.0000   1.0000   1.0000   1.0000   1.0000   1.0000   1.0000
     1.0000   1.0000   1.0000   1.0000   1.0000   1.0000   1.0000   1.0000
     1.0000   1.0000   1.0000   1.0000   1.0000   1.0000   1.0000   1.0000
     1.0000   1.0000   1.0000   1.0000   1.0000   1.0000   1.0000   1.0000
     1.0000   1.0000   1.0000   1.0000   1.0000   1.0000   1.0000   1.0000
     1.0000   1.0000   1.0000   1.0000   1.0000   1.0000   1.0000   1.0000
     1.0000   1.0000   1.0000   1.0000   1.0000   1.0000   1.0000   1.0000
     1.0000   1.0000   1.0000   1.0000   1.0000   1.0000   1.0000   1.0000
     1.0000   1.0000   1.0000   1.0000   1.0000   1.0000   1.0000   1.0000
     1.0000   1.0000   1.0000   1.0000   1.0000   1.0000   1.0000   1.0000
     1.0000   1.0000   1.0000   1.0000   1.0000   1.0000   1.0000   1.0000
     1.0000   1.0000   1.0000   1.0000   1.0000   1.0000   1.0000   1.0000
     1.0000   1.0000   1.0000   1.0000   1.0000   1.0000   1.0000   1.0000
     1.0000   1.0000   1.0000   1.0000   1.0000   1.0000   1.0000   1.0000
     1.0000   1.0000   1.0000   1.0000   1.0000   1.0000   1.0000   1.0000
     1.0000   1.0000   1.0000   1.0000   1.0000   1.0000   1.0000   1.0000
     1.0000   1.0000   1.0000   1.0000   1.0000   1.0000   1.0000   1.0000
     1.0000   1.0000   1.0000   1.0000   1.0000   1.0000   1.0000   1.0000
     1.0000   1.0000   1.0000   1.0000   1.0000   1.0000   1.0000   1.0000
     1.0000   1.0000   1.0000   1.0000   1.0000   1.0000   1.0000   1.0000
     1.0000   1.0000   1.0000   1.0000   1.0000   1.0000   1.0000   1.0000
     1.0000   1.0000   1.0000   1.0000   1.0000   1.0000   1.0000   1.0000
     1.0000   1.0000   1.0000   1.0000   1.0000   1.0000   1.0000   1.0000
     1.0000   1.0000   1.0000   1.0000   1.0000   1.0000   1.0000   1.0000
     1.0000   1.0000   0.6202   0.0472   0.0300  -0.0302  -0.0341  -0.0189
    -0.0146  -0.0013  -0.0000  -0.0000  -0.0000  -0.0000  -0.0000  -0.0000
    -0.0000  -0.0000  -0.0000  -0.0000  -0.0000  -0.0000  -0.0000  -0.0000
    -0.0000  -0.0000  -0.0000  -0.0000  -0.0000  -0.0000  -0.0000  -0.0000
    -0.0000  -0.0000  -0.0000  -0.0000  -0.0000  -0.0000  -0.0000  -0.0000
    -0.0000  -0.0000  -0.0000

          k = 0.3333-0.3333 0.3333 (  9255 PWs)   bands (ev):

   -78.1973 -78.1972 -78.1972 -78.1970 -73.5138 -73.5137 -73.5137 -73.5136
   -44.2711 -44.2705 -44.2705 -44.2694 -44.1226 -44.1225 -44.1223 -44.1221
   -44.1218 -44.1217 -44.1209 -44.1203 -39.7058 -39.7057 -39.7052 -39.7048
   -39.5774 -39.5774 -39.5771 -39.5770 -39.5767 -39.5766 -39.5759 -39.5754
   -11.7644 -11.7620 -11.7602 -11.7584 -11.7577 -11.7554 -11.7549 -11.7541
   -11.7534 -11.7519 -11.7513 -11.7484 -11.7478 -11.7460 -11.7447 -11.7434
   -11.7413 -11.7406 -11.7405 -11.7395 -11.7388 -11.7378 -11.7376 -11.7375
   -11.7372 -11.7370 -11.7369 -11.7367 -11.7367 -11.7304 -11.7302 -11.7300
   -11.7288 -11.7282 -11.7278 -11.7274 -11.7272 -11.7271 -11.7265 -11.7247
    -6.6782  -6.4121  -6.3490  -6.2973  -6.1071  -6.0655  -6.0148  -5.8187
    -5.4900  -5.4889  -5.4380  -5.3941  -5.3873  -5.3799  -5.3516  -5.3196
    -5.3004  -5.2988  -5.2926  -5.2656  -5.2426  -5.2242  -5.2067  -5.1776
     1.1117   1.1179   1.1184   1.2163   1.2176   1.2203   1.2723   1.4545
     5.8564   5.9083   5.9095   5.9748   6.1426   6.1644   6.2011   6.2490
     6.2561   6.3772   6.4085   6.4134   6.4411   6.5293   6.5620   6.6072
     6.6600   6.6660   6.7560   6.7649   6.7762   6.8841   6.9015   6.9548
     6.9991   7.0133   7.0908   7.2595   7.2768   7.3264   7.3477   7.3708
     7.5672   7.7188   7.8199   7.8251   7.8414   7.9278   8.1334   8.1448
     8.1546   8.1718   8.4438   8.4644   8.5243   8.5931   8.6264   8.7357
     9.2312   9.3189   9.3281   9.3957   9.4669   9.4863   9.4884   9.5890
     9.6398   9.6567   9.6719   9.7127   9.7488   9.8838   9.9002   9.9792
    10.0057  10.0084  10.0231  10.0873  10.1471  10.1693  10.2527  10.2863
    10.3089  10.3147  10.3655  10.4177  10.4260  10.4499  10.4593  10.4953
    10.5029  10.5290  10.5387  10.5870  11.6008  11.6187  12.1751  12.1976
    12.2342  12.2368  12.7128  12.7457  12.8806  12.8845  12.9229  13.0031
    13.0465  13.0659  13.0926  13.0950  13.1935  13.2855  13.2984  13.3214
    13.4762  13.5233  13.5260  13.8345  13.8623  13.9217  13.9852  14.4784
    14.5117  15.0122  15.0442  15.0730  15.1037  15.2442  15.2549  15.2962
    15.3519  15.3858  15.4141  15.5231  15.6170  15.6265  15.6461  15.6989
    15.7066  15.7926  15.7976

     occupation numbers 
     1.0000   1.0000   1.0000   1.0000   1.0000   1.0000   1.0000   1.0000
     1.0000   1.0000   1.0000   1.0000   1.0000   1.0000   1.0000   1.0000
     1.0000   1.0000   1.0000   1.0000   1.0000   1.0000   1.0000   1.0000
     1.0000   1.0000   1.0000   1.0000   1.0000   1.0000   1.0000   1.0000
     1.0000   1.0000   1.0000   1.0000   1.0000   1.0000   1.0000   1.0000
     1.0000   1.0000   1.0000   1.0000   1.0000   1.0000   1.0000   1.0000
     1.0000   1.0000   1.0000   1.0000   1.0000   1.0000   1.0000   1.0000
     1.0000   1.0000   1.0000   1.0000   1.0000   1.0000   1.0000   1.0000
     1.0000   1.0000   1.0000   1.0000   1.0000   1.0000   1.0000   1.0000
     1.0000   1.0000   1.0000   1.0000   1.0000   1.0000   1.0000   1.0000
     1.0000   1.0000   1.0000   1.0000   1.0000   1.0000   1.0000   1.0000
     1.0000   1.0000   1.0000   1.0000   1.0000   1.0000   1.0000   1.0000
     1.0000   1.0000   1.0000   1.0000   1.0000   1.0000   1.0000   1.0000
     1.0000   1.0000   1.0000   1.0000   1.0000   1.0000   1.0000   1.0000
     1.0000   1.0000   1.0000   1.0000   1.0000   1.0000   1.0000   1.0000
     1.0000   1.0000   1.0000   1.0000   1.0000   1.0000   1.0000   1.0000
     1.0000   1.0000   1.0000   1.0000   1.0000   1.0000   1.0000   1.0000
     1.0000   1.0000   1.0000   1.0000   1.0000   1.0000   1.0000   1.0000
     1.0000   1.0000   1.0000   1.0000   1.0000   1.0000   1.0000   1.0000
     1.0000   1.0000   1.0000   1.0000   1.0000   1.0000   1.0000   1.0000
     1.0000   1.0000   1.0000   1.0000   1.0000   1.0000   1.0000   1.0000
     1.0000   1.0000   1.0000   1.0000   1.0000   1.0000   1.0000   1.0000
     1.0000   1.0000   1.0000   1.0000   1.0000   1.0000   1.0000   1.0000
     1.0000   1.0000   1.0000   1.0000   1.0000   1.0000   1.0000   1.0000
     1.0000   1.0000   1.0355   1.0229   0.4899   0.4660   0.2420  -0.0135
    -0.0355  -0.0327  -0.0245  -0.0236  -0.0026  -0.0001  -0.0001  -0.0000
    -0.0000  -0.0000  -0.0000  -0.0000  -0.0000  -0.0000  -0.0000  -0.0000
    -0.0000  -0.0000  -0.0000  -0.0000  -0.0000  -0.0000  -0.0000  -0.0000
    -0.0000  -0.0000  -0.0000  -0.0000  -0.0000  -0.0000  -0.0000  -0.0000
    -0.0000  -0.0000  -0.0000

 ------ SPIN DOWN ----------


          k = 0.0000 0.0000 0.0000 (  9171 PWs)   bands (ev):

   -78.2009 -78.2006 -78.2002 -78.2002 -73.5133 -73.5131 -73.5128 -73.5128
   -44.2760 -44.2734 -44.2714 -44.2698 -44.1262 -44.1262 -44.1251 -44.1251
   -44.1219 -44.1219 -44.1219 -44.1219 -39.7054 -39.7032 -39.7025 -39.7012
   -39.5775 -39.5775 -39.5765 -39.5765 -39.5737 -39.5737 -39.5737 -39.5736
   -11.7831 -11.7807 -11.7726 -11.7723 -11.7706 -11.7700 -11.7699 -11.7699
   -11.7694 -11.7661 -11.7661 -11.7523 -11.7523 -11.7497 -11.7419 -11.7419
   -11.7393 -11.7365 -11.7365 -11.7356 -11.7356 -11.7343 -11.7340 -11.7340
   -11.7337 -11.7331 -11.7328 -11.7328 -11.7325 -11.7222 -11.7215 -11.7196
   -11.7196 -11.7188 -11.7182 -11.7148 -11.7131 -11.7121 -11.7121 -11.7094
    -7.0649  -6.3948  -6.2891  -6.2477  -5.7544  -5.7047  -5.6706  -5.6585
    -5.6585  -5.6279  -5.6228  -5.4857  -5.4857  -5.4854  -5.4854  -5.4132
    -5.3384  -5.3237  -5.3237  -5.2739  -5.1819  -5.1778  -5.1706  -5.1307
     0.8308   0.8308   0.8359   1.2189   1.2229   1.2229   1.8630   2.0111
     5.2406   5.3188   5.3188   5.3714   5.5291   5.7050   5.7104   5.8010
     5.9651   6.3428   6.4099   6.4986   6.5249   6.5493   6.5767   6.5767
     7.0617   7.0769   7.0809   7.3098   7.3098   7.3530   7.3530   7.4214
     7.4971   7.4971   7.5663   7.6564   7.6564   7.6901   7.6901   7.7045
     7.7190   7.7243   7.7243   7.7262   7.7262   7.7397   7.7440   7.7441
     7.8098   8.0106   8.3737   8.4522   8.4522   8.6702   8.6879   8.6879
     9.0770   9.3994   9.3994   9.4153   9.4435   9.4435   9.7578   9.7578
     9.7595   9.7595   9.7699   9.8657  10.0156  10.0357  10.0357  10.0534
    10.0534  10.0847  10.0908  10.1410  10.1760  10.1760  10.2200  10.2200
    10.2349  10.3432  10.3528  10.3528  10.3633  10.7235  10.7235  10.7256
    10.8847  10.8847  10.9103  10.9189  10.9189  10.9278  11.2754  11.2882
    11.2920  11.3953  12.0617  12.1559  12.2532  12.5486  12.9228  13.0036
    13.0036  13.0386  13.0411  13.0411  13.3665  13.4574  13.4574  13.5447
    13.5862  13.7262  13.7339  13.7340  13.7757  13.7854  13.7881  14.0760
    14.7128  14.7494  14.7494  14.7521  14.7727  14.7734  14.7735  15.2784
    15.2800  15.2802  15.2930  15.2930  15.2982  15.3993  16.2717  16.2831
    16.4648  16.4648  16.4736

     occupation numbers 
     1.0000   1.0000   1.0000   1.0000   1.0000   1.0000   1.0000   1.0000
     1.0000   1.0000   1.0000   1.0000   1.0000   1.0000   1.0000   1.0000
     1.0000   1.0000   1.0000   1.0000   1.0000   1.0000   1.0000   1.0000
     1.0000   1.0000   1.0000   1.0000   1.0000   1.0000   1.0000   1.0000
     1.0000   1.0000   1.0000   1.0000   1.0000   1.0000   1.0000   1.0000
     1.0000   1.0000   1.0000   1.0000   1.0000   1.0000   1.0000   1.0000
     1.0000   1.0000   1.0000   1.0000   1.0000   1.0000   1.0000   1.0000
     1.0000   1.0000   1.0000   1.0000   1.0000   1.0000   1.0000   1.0000
     1.0000   1.0000   1.0000   1.0000   1.0000   1.0000   1.0000   1.0000
     1.0000   1.0000   1.0000   1.0000   1.0000   1.0000   1.0000   1.0000
     1.0000   1.0000   1.0000   1.0000   1.0000   1.0000   1.0000   1.0000
     1.0000   1.0000   1.0000   1.0000   1.0000   1.0000   1.0000   1.0000
     1.0000   1.0000   1.0000   1.0000   1.0000   1.0000   1.0000   1.0000
     1.0000   1.0000   1.0000   1.0000   1.0000   1.0000   1.0000   1.0000
     1.0000   1.0000   1.0000   1.0000   1.0000   1.0000   1.0000   1.0000
     1.0000   1.0000   1.0000   1.0000   1.0000   1.0000   1.0000   1.0000
     1.0000   1.0000   1.0000   1.0000   1.0000   1.0000   1.0000   1.0000
     1.0000   1.0000   1.0000   1.0000   1.0000   1.0000   1.0000   1.0000
     1.0000   1.0000   1.0000   1.0000   1.0000   1.0000   1.0000   1.0000
     1.0000   1.0000   1.0000   1.0000   1.0000   1.0000   1.0000   1.0000
     1.0000   1.0000   1.0000   1.0000   1.0000   1.0000   1.0000   1.0000
     1.0000   1.0000   1.0000   1.0000   1.0000   1.0000   1.0000   1.0000
     1.0000   1.0000   1.0000   1.0000   1.0000   1.0000   1.0000   1.0000
     1.0000   1.0000   1.0000   1.0000   1.0000   1.0000   1.0000   1.0000
     1.0000   1.0000   1.0000   1.0000   1.0000   1.0016   0.2425  -0.0140
    -0.0140  -0.0350  -0.0353  -0.0353  -0.0000  -0.0000  -0.0000  -0.0000
    -0.0000  -0.0000  -0.0000  -0.0000  -0.0000  -0.0000  -0.0000  -0.0000
    -0.0000  -0.0000  -0.0000  -0.0000  -0.0000  -0.0000  -0.0000  -0.0000
    -0.0000  -0.0000  -0.0000  -0.0000  -0.0000  -0.0000  -0.0000  -0.0000
    -0.0000  -0.0000  -0.0000

          k = 0.0000 0.0000 0.3333 (  9142 PWs)   bands (ev):

   -78.2005 -78.2004 -78.2004 -78.2003 -73.5130 -73.5129 -73.5129 -73.5129
   -44.2738 -44.2732 -44.2724 -44.2717 -44.1237 -44.1237 -44.1232 -44.1232
   -44.1229 -44.1229 -44.1223 -44.1223 -39.7043 -39.7032 -39.7026 -39.7025
   -39.5753 -39.5753 -39.5749 -39.5749 -39.5746 -39.5746 -39.5740 -39.5740
   -11.7804 -11.7750 -11.7738 -11.7705 -11.7683 -11.7638 -11.7638 -11.7616
   -11.7610 -11.7579 -11.7579 -11.7554 -11.7553 -11.7493 -11.7435 -11.7429
   -11.7413 -11.7413 -11.7399 -11.7375 -11.7375 -11.7360 -11.7359 -11.7349
   -11.7349 -11.7303 -11.7303 -11.7296 -11.7290 -11.7231 -11.7231 -11.7228
   -11.7224 -11.7218 -11.7217 -11.7208 -11.7208 -11.7185 -11.7144 -11.7135
    -6.9304  -6.5807  -6.2793  -6.1379  -5.9861  -5.8626  -5.6415  -5.6170
    -5.6170  -5.5873  -5.5305  -5.5305  -5.4459  -5.4459  -5.4065  -5.3650
    -5.3650  -5.3564  -5.2982  -5.2601  -5.2375  -5.1758  -5.1723  -5.1559
     0.9325   0.9325   1.0297   1.1287   1.1287   1.3766   1.5212   1.7677
     5.4916   5.6260   5.6260   5.7324   5.8089   5.9128   5.9368   5.9688
     6.0488   6.3578   6.3886   6.4504   6.4504   6.5044   6.5117   6.6022
     6.7688   6.7688   6.8755   7.0990   7.0990   7.1112   7.1502   7.1554
     7.1554   7.1706   7.1706   7.2328   7.2407   7.3285   7.4919   7.6224
     7.8180   7.8180   7.9197   7.9197   8.0606   8.1571   8.2000   8.2000
     8.2446   8.4411   8.4411   8.4817   8.5397   8.5397   8.9511   8.9511
     8.9896   9.1463   9.1720   9.1720   9.3759   9.3979   9.4609   9.4793
     9.4794   9.4970   9.6240   9.6870   9.7856   9.7856   9.9233   9.9233
    10.0212  10.0212  10.0792  10.0792  10.1492  10.1492  10.3218  10.3218
    10.4308  10.4485  10.4485  10.5313  10.5313  10.6046  10.6791  10.6791
    10.7594  10.7594  10.9090  10.9232  11.2911  11.2924  11.2979  11.3328
    11.3422  11.3827  12.2356  12.4212  12.9753  13.0500  13.0533  13.0535
    13.0535  13.1208  13.2021  13.2021  13.2746  13.2746  13.3431  13.5501
    13.5573  13.5573  13.5624  14.1682  14.1824  14.2024  14.2333  14.3897
    14.7908  14.8468  14.8675  14.8675  14.9118  14.9258  15.1175  15.1175
    15.1182  15.1183  15.1869  15.2319  15.5173  15.5568  15.5568  15.8471
    15.8940  16.1472  16.1472

     occupation numbers 
     1.0000   1.0000   1.0000   1.0000   1.0000   1.0000   1.0000   1.0000
     1.0000   1.0000   1.0000   1.0000   1.0000   1.0000   1.0000   1.0000
     1.0000   1.0000   1.0000   1.0000   1.0000   1.0000   1.0000   1.0000
     1.0000   1.0000   1.0000   1.0000   1.0000   1.0000   1.0000   1.0000
     1.0000   1.0000   1.0000   1.0000   1.0000   1.0000   1.0000   1.0000
     1.0000   1.0000   1.0000   1.0000   1.0000   1.0000   1.0000   1.0000
     1.0000   1.0000   1.0000   1.0000   1.0000   1.0000   1.0000   1.0000
     1.0000   1.0000   1.0000   1.0000   1.0000   1.0000   1.0000   1.0000
     1.0000   1.0000   1.0000   1.0000   1.0000   1.0000   1.0000   1.0000
     1.0000   1.0000   1.0000   1.0000   1.0000   1.0000   1.0000   1.0000
     1.0000   1.0000   1.0000   1.0000   1.0000   1.0000   1.0000   1.0000
     1.0000   1.0000   1.0000   1.0000   1.0000   1.0000   1.0000   1.0000
     1.0000   1.0000   1.0000   1.0000   1.0000   1.0000   1.0000   1.0000
     1.0000   1.0000   1.0000   1.0000   1.0000   1.0000   1.0000   1.0000
     1.0000   1.0000   1.0000   1.0000   1.0000   1.0000   1.0000   1.0000
     1.0000   1.0000   1.0000   1.0000   1.0000   1.0000   1.0000   1.0000
     1.0000   1.0000   1.0000   1.0000   1.0000   1.0000   1.0000   1.0000
     1.0000   1.0000   1.0000   1.0000   1.0000   1.0000   1.0000   1.0000
     1.0000   1.0000   1.0000   1.0000   1.0000   1.0000   1.0000   1.0000
     1.0000   1.0000   1.0000   1.0000   1.0000   1.0000   1.0000   1.0000
     1.0000   1.0000   1.0000   1.0000   1.0000   1.0000   1.0000   1.0000
     1.0000   1.0000   1.0000   1.0000   1.0000   1.0000   1.0000   1.0000
     1.0000   1.0000   1.0000   1.0000   1.0000   1.0000   1.0000   1.0000
     1.0000   1.0000   1.0000   1.0000   1.0000   1.0000   1.0000   1.0000
     1.0000   1.0000   1.0000   1.0000   0.0375  -0.0353  -0.0350  -0.0350
    -0.0350  -0.0153  -0.0020  -0.0020  -0.0002  -0.0002  -0.0000  -0.0000
    -0.0000  -0.0000  -0.0000  -0.0000  -0.0000  -0.0000  -0.0000  -0.0000
    -0.0000  -0.0000  -0.0000  -0.0000  -0.0000  -0.0000  -0.0000  -0.0000
    -0.0000  -0.0000  -0.0000  -0.0000  -0.0000  -0.0000  -0.0000  -0.0000
    -0.0000  -0.0000  -0.0000

          k = 0.0000 0.3333 0.3333 (  9198 PWs)   bands (ev):

   -78.2006 -78.2006 -78.2005 -78.2004 -73.5131 -73.5131 -73.5131 -73.5129
   -44.2740 -44.2734 -44.2729 -44.2727 -44.1252 -44.1249 -44.1248 -44.1247
   -44.1240 -44.1237 -44.1236 -44.1228 -39.7045 -39.7036 -39.7034 -39.7028
   -39.5765 -39.5763 -39.5762 -39.5761 -39.5756 -39.5752 -39.5752 -39.5745
   -11.7740 -11.7684 -11.7668 -11.7657 -11.7622 -11.7614 -11.7605 -11.7595
   -11.7587 -11.7555 -11.7530 -11.7510 -11.7472 -11.7456 -11.7447 -11.7442
   -11.7441 -11.7435 -11.7425 -11.7417 -11.7380 -11.7380 -11.7367 -11.7366
   -11.7343 -11.7324 -11.7320 -11.7301 -11.7296 -11.7295 -11.7281 -11.7272
   -11.7262 -11.7254 -11.7241 -11.7229 -11.7223 -11.7220 -11.7198 -11.7177
    -6.8022  -6.4792  -6.4624  -6.1687  -6.0948  -5.8462  -5.8337  -5.6587
    -5.5758  -5.4903  -5.4902  -5.4678  -5.4590  -5.4397  -5.4074  -5.3687
    -5.3249  -5.2935  -5.2788  -5.2598  -5.2285  -5.2059  -5.1969  -5.1655
     1.0389   1.0608   1.0639   1.1130   1.2618   1.2639   1.3524   1.5822
     5.6591   5.7151   5.8570   5.9250   5.9276   5.9741   6.0097   6.0466
     6.3682   6.3810   6.4185   6.4258   6.4630   6.5450   6.5666   6.6131
     6.6186   6.6760   6.7556   6.7812   6.8930   6.9309   7.1018   7.1132
     7.1565   7.2253   7.2316   7.2687   7.3957   7.5039   7.5631   7.5768
     7.5812   7.6399   7.6436   7.7230   7.7641   7.8107   8.1961   8.2787
     8.2867   8.3336   8.5480   8.6075   8.7285   8.7388   8.8813   8.9295
     8.9460   9.0072   9.0737   9.1194   9.2020   9.3974   9.4012   9.4915
     9.5174   9.5769   9.5999   9.7223   9.8929   9.8988   9.9096   9.9346
     9.9782  10.0410  10.0423  10.1601  10.1695  10.1859  10.2212  10.2457
    10.2577  10.3634  10.3639  10.4315  10.4430  10.5239  10.5520  10.5982
    10.6315  10.6749  10.7290  10.7296  11.3113  11.3128  11.6352  11.6500
    11.9106  11.9403  12.5988  12.6906  12.9424  12.9855  13.0795  13.1072
    13.1490  13.2029  13.2293  13.2949  13.3567  13.3620  13.3915  13.4523
    13.4826  13.5093  13.7184  13.9213  14.4332  14.4661  14.5095  14.5145
    14.5379  14.6385  14.6512  14.6588  14.6708  15.0021  15.0187  15.1732
    15.1907  15.2095  15.2238  15.3010  15.3138  15.4205  15.4728  15.4818
    15.5762  15.7063  15.8237

     occupation numbers 
     1.0000   1.0000   1.0000   1.0000   1.0000   1.0000   1.0000   1.0000
     1.0000   1.0000   1.0000   1.0000   1.0000   1.0000   1.0000   1.0000
     1.0000   1.0000   1.0000   1.0000   1.0000   1.0000   1.0000   1.0000
     1.0000   1.0000   1.0000   1.0000   1.0000   1.0000   1.0000   1.0000
     1.0000   1.0000   1.0000   1.0000   1.0000   1.0000   1.0000   1.0000
     1.0000   1.0000   1.0000   1.0000   1.0000   1.0000   1.0000   1.0000
     1.0000   1.0000   1.0000   1.0000   1.0000   1.0000   1.0000   1.0000
     1.0000   1.0000   1.0000   1.0000   1.0000   1.0000   1.0000   1.0000
     1.0000   1.0000   1.0000   1.0000   1.0000   1.0000   1.0000   1.0000
     1.0000   1.0000   1.0000   1.0000   1.0000   1.0000   1.0000   1.0000
     1.0000   1.0000   1.0000   1.0000   1.0000   1.0000   1.0000   1.0000
     1.0000   1.0000   1.0000   1.0000   1.0000   1.0000   1.0000   1.0000
     1.0000   1.0000   1.0000   1.0000   1.0000   1.0000   1.0000   1.0000
     1.0000   1.0000   1.0000   1.0000   1.0000   1.0000   1.0000   1.0000
     1.0000   1.0000   1.0000   1.0000   1.0000   1.0000   1.0000   1.0000
     1.0000   1.0000   1.0000   1.0000   1.0000   1.0000   1.0000   1.0000
     1.0000   1.0000   1.0000   1.0000   1.0000   1.0000   1.0000   1.0000
     1.0000   1.0000   1.0000   1.0000   1.0000   1.0000   1.0000   1.0000
     1.0000   1.0000   1.0000   1.0000   1.0000   1.0000   1.0000   1.0000
     1.0000   1.0000   1.0000   1.0000   1.0000   1.0000   1.0000   1.0000
     1.0000   1.0000   1.0000   1.0000   1.0000   1.0000   1.0000   1.0000
     1.0000   1.0000   1.0000   1.0000   1.0000   1.0000   1.0000   1.0000
     1.0000   1.0000   1.0000   1.0000   1.0000   1.0000   1.0000   1.0000
     1.0000   1.0000   1.0000   1.0000   1.0000   1.0000   1.0000   1.0000
     1.0000   1.0000   1.0066   1.0323   0.1491   0.0146  -0.0288  -0.0195
    -0.0084  -0.0019  -0.0008  -0.0001  -0.0000  -0.0000  -0.0000  -0.0000
    -0.0000  -0.0000  -0.0000  -0.0000  -0.0000  -0.0000  -0.0000  -0.0000
    -0.0000  -0.0000  -0.0000  -0.0000  -0.0000  -0.0000  -0.0000  -0.0000
    -0.0000  -0.0000  -0.0000  -0.0000  -0.0000  -0.0000  -0.0000  -0.0000
    -0.0000  -0.0000  -0.0000

          k = 0.3333 0.3333 0.3333 (  9255 PWs)   bands (ev):

   -78.2008 -78.2007 -78.2007 -78.2005 -73.5132 -73.5132 -73.5132 -73.5130
[...]
    14.2324  14.8004  14.8472  14.8558  14.9122  14.9242  14.9471  15.1050
    15.1066  15.1378  15.1449  15.2211  15.2916  15.5643  15.5689  15.8520
    15.8607  16.1497  16.1569

     occupation numbers 
     1.0000   1.0000   1.0000   1.0000   1.0000   1.0000   1.0000   1.0000
     1.0000   1.0000   1.0000   1.0000   1.0000   1.0000   1.0000   1.0000
     1.0000   1.0000   1.0000   1.0000   1.0000   1.0000   1.0000   1.0000
     1.0000   1.0000   1.0000   1.0000   1.0000   1.0000   1.0000   1.0000
     1.0000   1.0000   1.0000   1.0000   1.0000   1.0000   1.0000   1.0000
     1.0000   1.0000   1.0000   1.0000   1.0000   1.0000   1.0000   1.0000
     1.0000   1.0000   1.0000   1.0000   1.0000   1.0000   1.0000   1.0000
     1.0000   1.0000   1.0000   1.0000   1.0000   1.0000   1.0000   1.0000
     1.0000   1.0000   1.0000   1.0000   1.0000   1.0000   1.0000   1.0000
     1.0000   1.0000   1.0000   1.0000   1.0000   1.0000   1.0000   1.0000
     1.0000   1.0000   1.0000   1.0000   1.0000   1.0000   1.0000   1.0000
     1.0000   1.0000   1.0000   1.0000   1.0000   1.0000   1.0000   1.0000
     1.0000   1.0000   1.0000   1.0000   1.0000   1.0000   1.0000   1.0000
     1.0000   1.0000   1.0000   1.0000   1.0000   1.0000   1.0000   1.0000
     1.0000   1.0000   1.0000   1.0000   1.0000   1.0000   1.0000   1.0000
     1.0000   1.0000   1.0000   1.0000   1.0000   1.0000   1.0000   1.0000
     1.0000   1.0000   1.0000   1.0000   1.0000   1.0000   1.0000   1.0000
     1.0000   1.0000   1.0000   1.0000   1.0000   1.0000   1.0000   1.0000
     1.0000   1.0000   1.0000   1.0000   1.0000   1.0000   1.0000   1.0000
     1.0000   1.0000   1.0000   1.0000   1.0000   1.0000   1.0000   1.0000
     1.0000   1.0000   1.0000   1.0000   1.0000   1.0000   1.0000   1.0000
     1.0000   1.0000   1.0000   1.0000   1.0000   1.0000   1.0000   1.0000
     1.0000   1.0000   1.0000   1.0000   1.0000   1.0000   1.0000   1.0000
     1.0000   1.0000   1.0000   1.0000   1.0000   1.0000   1.0000   1.0000
     1.0000   1.0000   0.2493   0.2210   0.0245  -0.0027  -0.0198  -0.0247
    -0.0304  -0.0213  -0.0026  -0.0000  -0.0000  -0.0000  -0.0000  -0.0000
    -0.0000  -0.0000  -0.0000  -0.0000  -0.0000  -0.0000  -0.0000  -0.0000
    -0.0000  -0.0000  -0.0000  -0.0000  -0.0000  -0.0000  -0.0000  -0.0000
    -0.0000  -0.0000  -0.0000  -0.0000  -0.0000  -0.0000  -0.0000  -0.0000
    -0.0000  -0.0000  -0.0000

          k = 0.3333-0.3333 0.0000 (  9198 PWs)   bands (ev):

   -78.2006 -78.2005 -78.2005 -78.2005 -73.5131 -73.5130 -73.5130 -73.5130
   -44.2733 -44.2733 -44.2727 -44.2720 -44.1263 -44.1249 -44.1248 -44.1247
   -44.1243 -44.1236 -44.1236 -44.1233 -39.7038 -39.7032 -39.7031 -39.7030
   -39.5775 -39.5762 -39.5762 -39.5761 -39.5758 -39.5751 -39.5751 -39.5749
   -11.7715 -11.7664 -11.7660 -11.7653 -11.7608 -11.7602 -11.7594 -11.7583
   -11.7582 -11.7578 -11.7543 -11.7540 -11.7474 -11.7471 -11.7465 -11.7461
   -11.7433 -11.7421 -11.7420 -11.7414 -11.7408 -11.7403 -11.7398 -11.7391
   -11.7324 -11.7323 -11.7306 -11.7304 -11.7298 -11.7296 -11.7295 -11.7283
   -11.7280 -11.7229 -11.7228 -11.7226 -11.7221 -11.7194 -11.7187 -11.7155
    -6.8063  -6.5316  -6.4111  -6.1676  -6.0701  -5.8111  -5.7960  -5.6990
    -5.6737  -5.5903  -5.4507  -5.4196  -5.4186  -5.4101  -5.3955  -5.3773
    -5.2990  -5.2911  -5.2896  -5.2859  -5.2520  -5.2153  -5.1800  -5.1566
     1.0428   1.0539   1.0654   1.1094   1.2615   1.2691   1.3508   1.5835
     5.4842   5.5273   5.6592   5.8314   6.0213   6.1092   6.1418   6.2488
     6.2492   6.3201   6.3735   6.4751   6.6365   6.6443   6.7317   6.7952
     6.8130   6.8424   6.8470   6.8768   6.8803   6.8946   6.9092   7.0107
     7.0338   7.0461   7.1745   7.2335   7.3219   7.3569   7.3914   7.4867
     7.7270   7.7300   7.7339   7.9058   7.9237   8.0404   8.1373   8.1709
     8.2909   8.3060   8.3068   8.4113   8.4337   8.7749   9.0171   9.0731
     9.1481   9.2150   9.2288   9.2601   9.2782   9.3245   9.3517   9.4042
     9.5507   9.5517   9.6402   9.6689   9.7313   9.7500   9.8482   9.9240
     9.9381   9.9403  10.0903  10.1955  10.2056  10.2370  10.2381  10.2454
    10.2580  10.2615  10.2646  10.2906  10.4434  10.4658  10.4868  10.6190
    10.6285  10.6530  10.6722  10.6884  10.7044  10.7657  12.1635  12.1808
    12.2540  12.2659  12.8584  12.9709  12.9777  13.0225  13.0329  13.1083
    13.1223  13.2139  13.3536  13.3646  13.3832  13.3958  13.4475  13.4661
    13.4730  13.5231  13.7298  13.7330  13.9405  13.9791  14.4249  14.4582
    14.5255  14.5909  14.6257  14.6550  14.7471  14.9869  15.0037  15.2134
    15.2158  15.2182  15.2768  15.3314  15.4293  15.4408  15.5157  15.5636
    15.6995  15.8317  16.0559

     occupation numbers 
     1.0000   1.0000   1.0000   1.0000   1.0000   1.0000   1.0000   1.0000
     1.0000   1.0000   1.0000   1.0000   1.0000   1.0000   1.0000   1.0000
     1.0000   1.0000   1.0000   1.0000   1.0000   1.0000   1.0000   1.0000
     1.0000   1.0000   1.0000   1.0000   1.0000   1.0000   1.0000   1.0000
     1.0000   1.0000   1.0000   1.0000   1.0000   1.0000   1.0000   1.0000
     1.0000   1.0000   1.0000   1.0000   1.0000   1.0000   1.0000   1.0000
     1.0000   1.0000   1.0000   1.0000   1.0000   1.0000   1.0000   1.0000
     1.0000   1.0000   1.0000   1.0000   1.0000   1.0000   1.0000   1.0000
     1.0000   1.0000   1.0000   1.0000   1.0000   1.0000   1.0000   1.0000
     1.0000   1.0000   1.0000   1.0000   1.0000   1.0000   1.0000   1.0000
     1.0000   1.0000   1.0000   1.0000   1.0000   1.0000   1.0000   1.0000
     1.0000   1.0000   1.0000   1.0000   1.0000   1.0000   1.0000   1.0000
     1.0000   1.0000   1.0000   1.0000   1.0000   1.0000   1.0000   1.0000
     1.0000   1.0000   1.0000   1.0000   1.0000   1.0000   1.0000   1.0000
     1.0000   1.0000   1.0000   1.0000   1.0000   1.0000   1.0000   1.0000
     1.0000   1.0000   1.0000   1.0000   1.0000   1.0000   1.0000   1.0000
     1.0000   1.0000   1.0000   1.0000   1.0000   1.0000   1.0000   1.0000
     1.0000   1.0000   1.0000   1.0000   1.0000   1.0000   1.0000   1.0000
     1.0000   1.0000   1.0000   1.0000   1.0000   1.0000   1.0000   1.0000
     1.0000   1.0000   1.0000   1.0000   1.0000   1.0000   1.0000   1.0000
     1.0000   1.0000   1.0000   1.0000   1.0000   1.0000   1.0000   1.0000
     1.0000   1.0000   1.0000   1.0000   1.0000   1.0000   1.0000   1.0000
     1.0000   1.0000   1.0000   1.0000   1.0000   1.0000   1.0000   1.0000
     1.0000   1.0000   1.0000   1.0000   1.0000   1.0000   1.0000   1.0000
     1.0000   1.0000   0.6263   0.0491   0.0316  -0.0299  -0.0339  -0.0192
    -0.0149  -0.0014  -0.0000  -0.0000  -0.0000  -0.0000  -0.0000  -0.0000
    -0.0000  -0.0000  -0.0000  -0.0000  -0.0000  -0.0000  -0.0000  -0.0000
    -0.0000  -0.0000  -0.0000  -0.0000  -0.0000  -0.0000  -0.0000  -0.0000
    -0.0000  -0.0000  -0.0000  -0.0000  -0.0000  -0.0000  -0.0000  -0.0000
    -0.0000  -0.0000  -0.0000

          k =-0.3333-0.3333 0.0000 (  9198 PWs)   bands (ev):

   -78.2006 -78.2005 -78.2005 -78.2005 -73.5131 -73.5130 -73.5130 -73.5130
   -44.2733 -44.2733 -44.2727 -44.2720 -44.1262 -44.1249 -44.1248 -44.1247
   -44.1243 -44.1236 -44.1236 -44.1233 -39.7038 -39.7032 -39.7031 -39.7030
   -39.5776 -39.5762 -39.5762 -39.5761 -39.5758 -39.5751 -39.5751 -39.5749
   -11.7715 -11.7664 -11.7660 -11.7653 -11.7608 -11.7602 -11.7594 -11.7583
   -11.7582 -11.7578 -11.7543 -11.7540 -11.7474 -11.7471 -11.7465 -11.7461
   -11.7433 -11.7421 -11.7420 -11.7414 -11.7409 -11.7403 -11.7398 -11.7391
   -11.7324 -11.7323 -11.7306 -11.7304 -11.7298 -11.7296 -11.7296 -11.7283
   -11.7280 -11.7229 -11.7229 -11.7226 -11.7221 -11.7195 -11.7187 -11.7155
    -6.8063  -6.5316  -6.4111  -6.1676  -6.0701  -5.8111  -5.7960  -5.6990
    -5.6737  -5.5903  -5.4507  -5.4196  -5.4186  -5.4101  -5.3955  -5.3773
    -5.2990  -5.2911  -5.2896  -5.2859  -5.2520  -5.2153  -5.1800  -5.1566
     1.0428   1.0539   1.0654   1.1094   1.2615   1.2691   1.3508   1.5835
     5.4842   5.5273   5.6592   5.8314   6.0213   6.1092   6.1418   6.2488
     6.2492   6.3201   6.3735   6.4751   6.6365   6.6443   6.7317   6.7952
     6.8130   6.8424   6.8470   6.8768   6.8803   6.8946   6.9092   7.0107
     7.0339   7.0461   7.1745   7.2335   7.3219   7.3569   7.3914   7.4867
     7.7270   7.7300   7.7339   7.9058   7.9237   8.0404   8.1373   8.1709
     8.2909   8.3060   8.3068   8.4113   8.4337   8.7749   9.0171   9.0731
     9.1481   9.2150   9.2288   9.2601   9.2781   9.3245   9.3517   9.4042
     9.5507   9.5517   9.6402   9.6689   9.7313   9.7500   9.8482   9.9240
     9.9381   9.9403  10.0903  10.1956  10.2056  10.2370  10.2381  10.2454
    10.2580  10.2615  10.2646  10.2906  10.4434  10.4658  10.4868  10.6190
    10.6285  10.6531  10.6722  10.6884  10.7044  10.7657  12.1635  12.1808
    12.2540  12.2659  12.8585  12.9709  12.9777  13.0224  13.0329  13.1082
    13.1223  13.2139  13.3536  13.3647  13.3831  13.3958  13.4476  13.4660
    13.4730  13.5232  13.7298  13.7330  13.9408  13.9794  14.4249  14.4582
    14.5255  14.5909  14.6257  14.6549  14.7471  14.9869  15.0035  15.1692
    15.2134  15.2159  15.2182  15.2768  15.3314  15.4293  15.4404  15.5157
    15.5636  15.6995  15.8317

     occupation numbers 
     1.0000   1.0000   1.0000   1.0000   1.0000   1.0000   1.0000   1.0000
     1.0000   1.0000   1.0000   1.0000   1.0000   1.0000   1.0000   1.0000
     1.0000   1.0000   1.0000   1.0000   1.0000   1.0000   1.0000   1.0000
     1.0000   1.0000   1.0000   1.0000   1.0000   1.0000   1.0000   1.0000
     1.0000   1.0000   1.0000   1.0000   1.0000   1.0000   1.0000   1.0000
     1.0000   1.0000   1.0000   1.0000   1.0000   1.0000   1.0000   1.0000
     1.0000   1.0000   1.0000   1.0000   1.0000   1.0000   1.0000   1.0000
     1.0000   1.0000   1.0000   1.0000   1.0000   1.0000   1.0000   1.0000
     1.0000   1.0000   1.0000   1.0000   1.0000   1.0000   1.0000   1.0000
     1.0000   1.0000   1.0000   1.0000   1.0000   1.0000   1.0000   1.0000
     1.0000   1.0000   1.0000   1.0000   1.0000   1.0000   1.0000   1.0000
     1.0000   1.0000   1.0000   1.0000   1.0000   1.0000   1.0000   1.0000
     1.0000   1.0000   1.0000   1.0000   1.0000   1.0000   1.0000   1.0000
     1.0000   1.0000   1.0000   1.0000   1.0000   1.0000   1.0000   1.0000
     1.0000   1.0000   1.0000   1.0000   1.0000   1.0000   1.0000   1.0000
     1.0000   1.0000   1.0000   1.0000   1.0000   1.0000   1.0000   1.0000
     1.0000   1.0000   1.0000   1.0000   1.0000   1.0000   1.0000   1.0000
     1.0000   1.0000   1.0000   1.0000   1.0000   1.0000   1.0000   1.0000
     1.0000   1.0000   1.0000   1.0000   1.0000   1.0000   1.0000   1.0000
     1.0000   1.0000   1.0000   1.0000   1.0000   1.0000   1.0000   1.0000
     1.0000   1.0000   1.0000   1.0000   1.0000   1.0000   1.0000   1.0000
     1.0000   1.0000   1.0000   1.0000   1.0000   1.0000   1.0000   1.0000
     1.0000   1.0000   1.0000   1.0000   1.0000   1.0000   1.0000   1.0000
     1.0000   1.0000   1.0000   1.0000   1.0000   1.0000   1.0000   1.0000
     1.0000   1.0000   0.6263   0.0490   0.0316  -0.0299  -0.0339  -0.0192
    -0.0149  -0.0014  -0.0000  -0.0000  -0.0000  -0.0000  -0.0000  -0.0000
    -0.0000  -0.0000  -0.0000  -0.0000  -0.0000  -0.0000  -0.0000  -0.0000
    -0.0000  -0.0000  -0.0000  -0.0000  -0.0000  -0.0000  -0.0000  -0.0000
    -0.0000  -0.0000  -0.0000  -0.0000  -0.0000  -0.0000  -0.0000  -0.0000
    -0.0000  -0.0000  -0.0000

          k = 0.3333-0.3333 0.3333 (  9255 PWs)   bands (ev):

   -78.2008 -78.2007 -78.2007 -78.2005 -73.5132 -73.5132 -73.5132 -73.5130
   -44.2747 -44.2741 -44.2741 -44.2730 -44.1260 -44.1259 -44.1256 -44.1255
   -44.1251 -44.1250 -44.1243 -44.1237 -39.7046 -39.7046 -39.7040 -39.7037
   -39.5772 -39.5771 -39.5769 -39.5768 -39.5765 -39.5764 -39.5757 -39.5752
   -11.7645 -11.7621 -11.7603 -11.7585 -11.7578 -11.7556 -11.7550 -11.7541
   -11.7536 -11.7520 -11.7513 -11.7485 -11.7479 -11.7461 -11.7448 -11.7435
   -11.7415 -11.7407 -11.7405 -11.7395 -11.7390 -11.7378 -11.7377 -11.7376
   -11.7373 -11.7371 -11.7370 -11.7368 -11.7368 -11.7305 -11.7303 -11.7301
   -11.7289 -11.7283 -11.7279 -11.7275 -11.7273 -11.7272 -11.7266 -11.7248
    -6.6785  -6.4124  -6.3493  -6.2977  -6.1073  -6.0658  -6.0152  -5.8190
    -5.4902  -5.4891  -5.4382  -5.3945  -5.3875  -5.3803  -5.3520  -5.3200
    -5.3007  -5.2991  -5.2930  -5.2661  -5.2430  -5.2246  -5.2071  -5.1781
     1.1112   1.1174   1.1179   1.2158   1.2171   1.2199   1.2718   1.4540
     5.8553   5.9073   5.9083   5.9739   6.1416   6.1635   6.2001   6.2479
     6.2549   6.3762   6.4075   6.4123   6.4401   6.5282   6.5611   6.6062
     6.6593   6.6654   6.7554   6.7640   6.7752   6.8828   6.9008   6.9543
     6.9985   7.0126   7.0896   7.2588   7.2761   7.3248   7.3470   7.3693
     7.5661   7.7173   7.8191   7.8244   7.8407   7.9261   8.1319   8.1439
     8.1535   8.1713   8.4425   8.4634   8.5227   8.5926   8.6253   8.7337
     9.2302   9.3181   9.3266   9.3942   9.4653   9.4859   9.4877   9.5886
     9.6375   9.6565   9.6717   9.7128   9.7484   9.8836   9.9003   9.9788
    10.0046  10.0071  10.0230  10.0870  10.1470  10.1685  10.2516  10.2848
    10.3077  10.3137  10.3646  10.4171  10.4258  10.4497  10.4587  10.4939
    10.5029  10.5279  10.5379  10.5869  11.5994  11.6174  12.1738  12.1964
    12.2331  12.2356  12.7116  12.7444  12.8800  12.8839  12.9219  13.0024
    13.0459  13.0653  13.0920  13.0940  13.1926  13.2848  13.2976  13.3207
    13.4752  13.5227  13.5253  13.8339  13.8617  13.9211  13.9843  14.4801
    14.5111  14.5783  15.0124  15.0448  15.0724  15.1040  15.1076  15.2442
    15.2546  15.2965  15.3522  15.3853  15.5249  15.6162  15.6260  15.6457
    15.6985  15.7061  15.7972

     occupation numbers 
     1.0000   1.0000   1.0000   1.0000   1.0000   1.0000   1.0000   1.0000
     1.0000   1.0000   1.0000   1.0000   1.0000   1.0000   1.0000   1.0000
     1.0000   1.0000   1.0000   1.0000   1.0000   1.0000   1.0000   1.0000
     1.0000   1.0000   1.0000   1.0000   1.0000   1.0000   1.0000   1.0000
     1.0000   1.0000   1.0000   1.0000   1.0000   1.0000   1.0000   1.0000
     1.0000   1.0000   1.0000   1.0000   1.0000   1.0000   1.0000   1.0000
     1.0000   1.0000   1.0000   1.0000   1.0000   1.0000   1.0000   1.0000
     1.0000   1.0000   1.0000   1.0000   1.0000   1.0000   1.0000   1.0000
     1.0000   1.0000   1.0000   1.0000   1.0000   1.0000   1.0000   1.0000
     1.0000   1.0000   1.0000   1.0000   1.0000   1.0000   1.0000   1.0000
     1.0000   1.0000   1.0000   1.0000   1.0000   1.0000   1.0000   1.0000
     1.0000   1.0000   1.0000   1.0000   1.0000   1.0000   1.0000   1.0000
     1.0000   1.0000   1.0000   1.0000   1.0000   1.0000   1.0000   1.0000
     1.0000   1.0000   1.0000   1.0000   1.0000   1.0000   1.0000   1.0000
     1.0000   1.0000   1.0000   1.0000   1.0000   1.0000   1.0000   1.0000
     1.0000   1.0000   1.0000   1.0000   1.0000   1.0000   1.0000   1.0000
     1.0000   1.0000   1.0000   1.0000   1.0000   1.0000   1.0000   1.0000
     1.0000   1.0000   1.0000   1.0000   1.0000   1.0000   1.0000   1.0000
     1.0000   1.0000   1.0000   1.0000   1.0000   1.0000   1.0000   1.0000
     1.0000   1.0000   1.0000   1.0000   1.0000   1.0000   1.0000   1.0000
     1.0000   1.0000   1.0000   1.0000   1.0000   1.0000   1.0000   1.0000
     1.0000   1.0000   1.0000   1.0000   1.0000   1.0000   1.0000   1.0000
     1.0000   1.0000   1.0000   1.0000   1.0000   1.0000   1.0000   1.0000
     1.0000   1.0000   1.0000   1.0000   1.0000   1.0000   1.0000   1.0000
     1.0000   1.0000   1.0355   1.0240   0.4937   0.4696   0.2474  -0.0126
    -0.0355  -0.0328  -0.0247  -0.0240  -0.0026  -0.0001  -0.0001  -0.0000
    -0.0000  -0.0000  -0.0000  -0.0000  -0.0000  -0.0000  -0.0000  -0.0000
    -0.0000  -0.0000  -0.0000  -0.0000  -0.0000  -0.0000  -0.0000  -0.0000
    -0.0000  -0.0000  -0.0000  -0.0000  -0.0000  -0.0000  -0.0000  -0.0000
    -0.0000  -0.0000  -0.0000

     the Fermi energy is    12.8790 ev

!    total energy              =   -4259.23308773 Ry
     estimated scf accuracy    <       0.00000254 Ry
     smearing contrib. (-TS)   =       0.00171865 Ry
     internal energy E=F+TS    =   -4259.23480638 Ry

     The total energy is F=E-TS. E is the sum of the following terms:
     one-electron contribution =   -1696.26830545 Ry
     hartree contribution      =    1099.80486318 Ry
     xc contribution           =    -925.16758960 Ry
     ewald contribution        =   -2737.60377451 Ry

     total magnetization       =    -0.01 Bohr mag/cell
     absolute magnetization    =    32.59 Bohr mag/cell

     convergence has been achieved in  14 iterations

     Writing output data file /home/aldair1809/Documentos/QE/4BFO/temp/bifeo3.save/

     init_run     :    113.39s CPU    114.87s WALL (       1 calls)
     electrons    :   6188.02s CPU   6315.39s WALL (       1 calls)

     Called by init_run:
     wfcinit      :    110.17s CPU    110.96s WALL (       1 calls)
     wfcinit:atom :      0.13s CPU      0.14s WALL (      16 calls)
     wfcinit:wfcr :    108.93s CPU    109.69s WALL (      16 calls)
     potinit      :      0.39s CPU      0.44s WALL (       1 calls)
     hinit0       :      0.53s CPU      0.65s WALL (       1 calls)

     Called by electrons:
     c_bands      :   5714.25s CPU   5795.14s WALL (      14 calls)
     sum_band     :    431.07s CPU    459.51s WALL (      14 calls)
     v_of_rho     :      4.50s CPU      5.82s WALL (      15 calls)
     v_h          :      0.17s CPU      0.18s WALL (      15 calls)
     v_xc         :      4.34s CPU      5.39s WALL (      15 calls)
     newd         :     37.97s CPU     47.94s WALL (      15 calls)
     mix_rho      :      1.74s CPU      2.17s WALL (      14 calls)

     Called by c_bands:
     init_us_2    :      6.40s CPU      6.53s WALL (     464 calls)
     ccgdiagg     :   4468.98s CPU   4510.46s WALL (     224 calls)
     wfcrot       :   1343.16s CPU   1353.64s WALL (     224 calls)

     Called by sum_band:
     sum_band:wei :      0.14s CPU      0.26s WALL (      14 calls)
     sum_band:loo :    358.91s CPU    363.19s WALL (      14 calls)
     sum_band:buf :      1.07s CPU      1.08s WALL (     224 calls)
     sum_band:ini :      3.01s CPU      3.03s WALL (     224 calls)
     sum_band:cal :    281.78s CPU    282.60s WALL (     224 calls)
     sum_band:bec :      1.78s CPU      1.78s WALL (     224 calls)
     addusdens    :     63.77s CPU     82.37s WALL (      14 calls)
     addusd:skk   :      0.20s CPU      0.23s WALL (      56 calls)
     addusd:dgemm :     42.06s CPU     55.17s WALL (     112 calls)
     addusd:qvan2 :     21.07s CPU     23.11s WALL (     112 calls)

     Called by *cgdiagg:
     h_psi        :   2528.62s CPU   2564.02s WALL (  125341 calls)
     s_psi        :   1701.01s CPU   1706.61s WALL (  250458 calls)

     Called by h_psi:
     h_psi:calbec :   1027.25s CPU   1037.64s WALL (  125341 calls)
     vloc_psi     :    493.62s CPU    516.03s WALL (  125341 calls)
     add_vuspsi   :   1003.46s CPU   1006.36s WALL (  125341 calls)
     hs_1psi      :   2510.23s CPU   2540.17s WALL (  125117 calls)
     s_1psi       :   1436.82s CPU   1444.63s WALL (  125117 calls)

     General routines
     calbec       :   2037.64s CPU   2054.92s WALL (  250682 calls)
     fft          :      3.78s CPU      4.81s WALL (     369 calls)
     ffts         :      0.13s CPU      0.22s WALL (      58 calls)
     fftw         :    506.87s CPU    531.44s WALL (  409338 calls)
     interpolate  :      0.43s CPU      0.54s WALL (      30 calls)

     Parallel routines
     fft_scatt_xy :     54.57s CPU     58.06s WALL (  409765 calls)
     fft_scatt_yz :    100.44s CPU    108.70s WALL (  409765 calls)

     PWSCF        :      1h45m CPU      1h47m WALL


   This run was terminated on:  19:34:43  24Oct2024            

=------------------------------------------------------------------------------=
   JOB DONE.
=------------------------------------------------------------------------------=
