
     Program PWSCF v.6.7MaX starts on 24Oct2024 at 16:28:28 

     This program is part of the open-source Quantum ESPRESSO suite
     for quantum simulation of materials; please cite
         "P. Giannozzi et al., J. Phys.:Condens. Matter 21 395502 (2009);
         "P. Giannozzi et al., J. Phys.:Condens. Matter 29 465901 (2017);
          URL http://www.quantum-espresso.org", 
     in publications or presentations arising from this work. More details at
     http://www.quantum-espresso.org/quote

     Parallel version (MPI), running on     4 processors

     MPI processes distributed on     1 nodes
     R & G space division:  proc/nbgrp/npool/nimage =       4
     Waiting for input...
     Reading input from standard input

     Current dimensions of program PWSCF are:
     Max number of different atomic species (ntypx) = 10
     Max number of k-points (npk) =  40000
     Max angular momentum in pseudopotentials (lmaxx) =  3
     Message from routine iosys:
     wrong startingpot: use default (1)

     Subspace diagonalization in iterative solution of the eigenvalue problem:
     one sub-group per band group will be used
     scalapack distributed-memory algorithm (size of sub-group:  2*  2 procs)

     Found symmetry operation: I + ( -0.5000 -0.5000  0.0000)
     This is a supercell, fractional translations are disabled

     Parallelization info
     --------------------
     sticks:   dense  smooth     PW     G-vecs:    dense   smooth      PW
     Min        1061     529    148                52086    18381    2768
     Max        1064     531    149                52087    18382    2771
     Sum        4249    2121    593               208345    73525   11075



     bravais-lattice index     =            1
     lattice parameter (alat)  =      14.9137  a.u.
     unit-cell volume          =    3317.0944 (a.u.)^3
     number of atoms/cell      =           40
     number of atomic types    =            4
     number of electrons       =       392.00
     number of Kohn-Sham states=          235
     kinetic-energy cutoff     =      30.0000  Ry
     charge density cutoff     =     240.0000  Ry
     scf convergence threshold =      1.0E-05
     mixing beta               =       0.4000
     number of iterations used =            8  plain     mixing
     Exchange-correlation=  SLA  PW   PBX  PBC
                           (   1   4   3   4   0   0   0)

     celldm(1)=  14.913719  celldm(2)=   0.000000  celldm(3)=   0.000000
     celldm(4)=   0.000000  celldm(5)=   0.000000  celldm(6)=   0.000000

     crystal axes: (cart. coord. in units of alat)
               a(1) = (   1.000000   0.000000   0.000000 )  
               a(2) = (   0.000000   1.000000   0.000000 )  
               a(3) = (   0.000000   0.000000   1.000000 )  

     reciprocal axes: (cart. coord. in units 2 pi/alat)
               b(1) = (  1.000000  0.000000  0.000000 )  
               b(2) = (  0.000000  1.000000  0.000000 )  
               b(3) = (  0.000000  0.000000  1.000000 )  


     PseudoPot. # 1 for O  read from file:
     /home/aldair1809/Programas/QE/q-e-qe-7.3/pseudo/o_pbe_v1.2.uspp.F.UPF
     MD5 check sum: 734c27235a0248c51dbae37a1fbe46ec
     Pseudo is Ultrasoft + core correction, Zval =  6.0
     Generated by new atomic code, or converted to UPF format
     Using radial grid of  737 points,  5 beta functions with: 
                l(1) =   0
                l(2) =   0
                l(3) =   1
                l(4) =   1
                l(5) =   2
     Q(r) pseudized with  8 coefficients,  rinner =    0.900   0.900   0.900
                                                       0.900   0.900

     PseudoPot. # 2 for Bi read from file:
     /home/aldair1809/Programas/QE/q-e-qe-7.3/pseudo/bi_pbe_v1.uspp.F.UPF
     MD5 check sum: cceb9f28ec65b6d7ff33140f5b0b1758
     Pseudo is Ultrasoft + core correction, Zval = 15.0
     Generated by new atomic code, or converted to UPF format
     Using radial grid of  899 points,  6 beta functions with: 
                l(1) =   0
                l(2) =   0
                l(3) =   1
                l(4) =   1
                l(5) =   2
                l(6) =   2
     Q(r) pseudized with  6 coefficients,  rinner =    1.000   1.000   1.000
                                                       1.000   1.000

     PseudoPot. # 3 for Fe read from file:
     /home/aldair1809/Programas/QE/q-e-qe-7.3/pseudo/fe_pbe_v1.5.uspp.F.UPF
     MD5 check sum: a130daea23fe5165f5d574ae7f82ed95
     Pseudo is Ultrasoft + core correction, Zval = 16.0
     Generated by new atomic code, or converted to UPF format
     Using radial grid of  861 points,  6 beta functions with: 
                l(1) =   0
                l(2) =   0
                l(3) =   1
                l(4) =   1
                l(5) =   2
                l(6) =   2
     Q(r) pseudized with  8 coefficients,  rinner =    1.000   1.000   1.000
                                                       1.000   1.000

     PseudoPot. # 4 for Fe read from file:
     /home/aldair1809/Programas/QE/q-e-qe-7.3/pseudo/fe_pbe_v1.5.uspp.F.UPF
     MD5 check sum: a130daea23fe5165f5d574ae7f82ed95
     Pseudo is Ultrasoft + core correction, Zval = 16.0
     Generated by new atomic code, or converted to UPF format
     Using radial grid of  861 points,  6 beta functions with: 
                l(1) =   0
                l(2) =   0
                l(3) =   1
                l(4) =   1
                l(5) =   2
                l(6) =   2
     Q(r) pseudized with  8 coefficients,  rinner =    1.000   1.000   1.000
                                                       1.000   1.000

     atomic species   valence    mass     pseudopotential
        O              6.00    15.99940     O ( 1.00)
        Bi            15.00   208.98040     Bi( 1.00)
        Fe1           16.00    55.84500     Fe( 1.00)
        Fe2           16.00    55.84500     Fe( 1.00)

     Starting magnetic structure 
     atomic species   magnetization
        O            0.000
        Bi           0.000
        Fe1         -0.800
        Fe2          0.800

      8 Sym. Ops., with inversion, found


                                    s                        frac. trans.

      isym =  1     identity                                     

 cryst.   s( 1) = (     1          0          0      )
                  (     0          1          0      )
                  (     0          0          1      )

 cart.    s( 1) = (  1.0000000  0.0000000  0.0000000 )
                  (  0.0000000  1.0000000  0.0000000 )
                  (  0.0000000  0.0000000  1.0000000 )


      isym =  2     180 deg rotation - cart. axis [0,0,1]        

 cryst.   s( 2) = (    -1          0          0      )
                  (     0         -1          0      )
                  (     0          0          1      )

 cart.    s( 2) = ( -1.0000000  0.0000000  0.0000000 )
                  (  0.0000000 -1.0000000  0.0000000 )
                  (  0.0000000  0.0000000  1.0000000 )


      isym =  3     180 deg rotation - cart. axis [1,1,0]        

 cryst.   s( 3) = (     0          1          0      )
                  (     1          0          0      )
                  (     0          0         -1      )

 cart.    s( 3) = (  0.0000000  1.0000000  0.0000000 )
                  (  1.0000000  0.0000000  0.0000000 )
                  (  0.0000000  0.0000000 -1.0000000 )


      isym =  4     180 deg rotation - cart. axis [1,-1,0]       

 cryst.   s( 4) = (     0         -1          0      )
                  (    -1          0          0      )
                  (     0          0         -1      )

 cart.    s( 4) = (  0.0000000 -1.0000000  0.0000000 )
                  ( -1.0000000  0.0000000  0.0000000 )
                  (  0.0000000  0.0000000 -1.0000000 )


      isym =  5     inversion                                    

 cryst.   s( 5) = (    -1          0          0      )
                  (     0         -1          0      )
                  (     0          0         -1      )

 cart.    s( 5) = ( -1.0000000  0.0000000  0.0000000 )
                  (  0.0000000 -1.0000000  0.0000000 )
                  (  0.0000000  0.0000000 -1.0000000 )


      isym =  6     inv. 180 deg rotation - cart. axis [0,0,1]   

 cryst.   s( 6) = (     1          0          0      )
                  (     0          1          0      )
                  (     0          0         -1      )

 cart.    s( 6) = (  1.0000000  0.0000000  0.0000000 )
                  (  0.0000000  1.0000000  0.0000000 )
                  (  0.0000000  0.0000000 -1.0000000 )


      isym =  7     inv. 180 deg rotation - cart. axis [1,1,0]   

 cryst.   s( 7) = (     0         -1          0      )
                  (    -1          0          0      )
                  (     0          0          1      )

 cart.    s( 7) = (  0.0000000 -1.0000000  0.0000000 )
                  ( -1.0000000  0.0000000  0.0000000 )
                  (  0.0000000  0.0000000  1.0000000 )


      isym =  8     inv. 180 deg rotation - cart. axis [1,-1,0]  

 cryst.   s( 8) = (     0          1          0      )
                  (     1          0          0      )
                  (     0          0          1      )

 cart.    s( 8) = (  0.0000000  1.0000000  0.0000000 )
                  (  1.0000000  0.0000000  0.0000000 )
                  (  0.0000000  0.0000000  1.0000000 )


     point group D_2h (mmm) 
     there are  8 classes
     the character table:

       E     C2    C2'   C2''  i     s_v   s_v'  s_v''
A_g    1.00  1.00  1.00  1.00  1.00  1.00  1.00  1.00
B_1g   1.00  1.00 -1.00 -1.00  1.00  1.00 -1.00 -1.00
B_2g   1.00 -1.00  1.00 -1.00  1.00 -1.00  1.00 -1.00
B_3g   1.00 -1.00 -1.00  1.00  1.00 -1.00 -1.00  1.00
A_u    1.00  1.00  1.00  1.00 -1.00 -1.00 -1.00 -1.00
B_1u   1.00  1.00 -1.00 -1.00 -1.00 -1.00  1.00  1.00
B_2u   1.00 -1.00  1.00 -1.00 -1.00  1.00 -1.00  1.00
B_3u   1.00 -1.00 -1.00  1.00 -1.00  1.00  1.00 -1.00

     the symmetry operations in each class and the name of the first element:

     E        1
          identity                                               
     C2       2
          180 deg rotation - cart. axis [0,0,1]                  
     C2'      4
          180 deg rotation - cart. axis [1,-1,0]                 
     C2''     3
          180 deg rotation - cart. axis [1,1,0]                  
     i        5
          inversion                                              
     s_v      6
          inv. 180 deg rotation - cart. axis [0,0,1]             
     s_v'     8
          inv. 180 deg rotation - cart. axis [1,-1,0]            
     s_v''    7
          inv. 180 deg rotation - cart. axis [1,1,0]             

   Cartesian axes

     site n.     atom                  positions (alat units)
         1           Bi  tau(   1) = (   0.0000000   0.0000000   0.0000000  )
         2           Bi  tau(   2) = (   0.5000000   0.5000000   0.0000000  )
         3           Bi  tau(   3) = (   0.5000000   0.0000000   0.0000000  )
         4           Bi  tau(   4) = (   0.0000000   0.5000000   0.5000000  )
         5           Bi  tau(   5) = (   0.0000000   0.0000000   0.5000000  )
         6           Bi  tau(   6) = (   0.5000000   0.5000000   0.5000000  )
         7           Bi  tau(   7) = (   0.5000000   0.0000000   0.5000000  )
         8           Bi  tau(   8) = (   0.0000000   0.5000000   0.0000000  )
         9           Fe2 tau(   9) = (   0.2500000   0.2500000   0.2500000  )
        10           Fe2 tau(  10) = (   0.7500000   0.7500000   0.2500000  )
        11           Fe1 tau(  11) = (   0.7500000   0.2500000   0.2500000  )
        12           Fe1 tau(  12) = (   0.2500000   0.7500000   0.7500000  )
        13           Fe2 tau(  13) = (   0.2500000   0.2500000   0.7500000  )
        14           Fe2 tau(  14) = (   0.7500000   0.7500000   0.7500000  )
        15           Fe1 tau(  15) = (   0.7500000   0.2500000   0.7500000  )
        16           Fe1 tau(  16) = (   0.2500000   0.7500000   0.2500000  )
        17           O   tau(  17) = (   0.2500000   0.2500000   0.0000000  )
        18           O   tau(  18) = (   0.2500000   0.0000000   0.2500000  )
        19           O   tau(  19) = (   0.0000000   0.2500000   0.2500000  )
        20           O   tau(  20) = (   0.7500000   0.7500000   0.0000000  )
        21           O   tau(  21) = (   0.7500000   0.2500000   0.0000000  )
        22           O   tau(  22) = (   0.2500000   0.7500000   0.5000000  )
        23           O   tau(  23) = (   0.2500000   0.2500000   0.5000000  )
        24           O   tau(  24) = (   0.7500000   0.7500000   0.5000000  )
        25           O   tau(  25) = (   0.7500000   0.2500000   0.5000000  )
        26           O   tau(  26) = (   0.2500000   0.7500000   0.0000000  )
        27           O   tau(  27) = (   0.7500000   0.5000000   0.2500000  )
        28           O   tau(  28) = (   0.7500000   0.0000000   0.2500000  )
        29           O   tau(  29) = (   0.2500000   0.5000000   0.7500000  )
        30           O   tau(  30) = (   0.2500000   0.0000000   0.7500000  )
        31           O   tau(  31) = (   0.7500000   0.5000000   0.7500000  )
        32           O   tau(  32) = (   0.7500000   0.0000000   0.7500000  )
        33           O   tau(  33) = (   0.2500000   0.5000000   0.2500000  )
        34           O   tau(  34) = (   0.5000000   0.7500000   0.2500000  )
        35           O   tau(  35) = (   0.5000000   0.2500000   0.2500000  )
        36           O   tau(  36) = (   0.0000000   0.7500000   0.7500000  )
        37           O   tau(  37) = (   0.0000000   0.2500000   0.7500000  )
        38           O   tau(  38) = (   0.5000000   0.7500000   0.7500000  )
        39           O   tau(  39) = (   0.5000000   0.2500000   0.7500000  )
        40           O   tau(  40) = (   0.0000000   0.7500000   0.2500000  )

   Crystallographic axes

     site n.     atom                  positions (cryst. coord.)
         1           Bi  tau(   1) = (  0.0000000  0.0000000  0.0000000  )
         2           Bi  tau(   2) = (  0.5000000  0.5000000  0.0000000  )
         3           Bi  tau(   3) = (  0.5000000  0.0000000  0.0000000  )
         4           Bi  tau(   4) = (  0.0000000  0.5000000  0.5000000  )
         5           Bi  tau(   5) = (  0.0000000  0.0000000  0.5000000  )
         6           Bi  tau(   6) = (  0.5000000  0.5000000  0.5000000  )
         7           Bi  tau(   7) = (  0.5000000  0.0000000  0.5000000  )
         8           Bi  tau(   8) = (  0.0000000  0.5000000  0.0000000  )
         9           Fe2 tau(   9) = (  0.2500000  0.2500000  0.2500000  )
        10           Fe2 tau(  10) = (  0.7500000  0.7500000  0.2500000  )
        11           Fe1 tau(  11) = (  0.7500000  0.2500000  0.2500000  )
        12           Fe1 tau(  12) = (  0.2500000  0.7500000  0.7500000  )
        13           Fe2 tau(  13) = (  0.2500000  0.2500000  0.7500000  )
        14           Fe2 tau(  14) = (  0.7500000  0.7500000  0.7500000  )
        15           Fe1 tau(  15) = (  0.7500000  0.2500000  0.7500000  )
        16           Fe1 tau(  16) = (  0.2500000  0.7500000  0.2500000  )
        17           O   tau(  17) = (  0.2500000  0.2500000  0.0000000  )
        18           O   tau(  18) = (  0.2500000  0.0000000  0.2500000  )
        19           O   tau(  19) = (  0.0000000  0.2500000  0.2500000  )
        20           O   tau(  20) = (  0.7500000  0.7500000  0.0000000  )
        21           O   tau(  21) = (  0.7500000  0.2500000  0.0000000  )
        22           O   tau(  22) = (  0.2500000  0.7500000  0.5000000  )
        23           O   tau(  23) = (  0.2500000  0.2500000  0.5000000  )
        24           O   tau(  24) = (  0.7500000  0.7500000  0.5000000  )
        25           O   tau(  25) = (  0.7500000  0.2500000  0.5000000  )
        26           O   tau(  26) = (  0.2500000  0.7500000  0.0000000  )
        27           O   tau(  27) = (  0.7500000  0.5000000  0.2500000  )
        28           O   tau(  28) = (  0.7500000  0.0000000  0.2500000  )
        29           O   tau(  29) = (  0.2500000  0.5000000  0.7500000  )
        30           O   tau(  30) = (  0.2500000  0.0000000  0.7500000  )
        31           O   tau(  31) = (  0.7500000  0.5000000  0.7500000  )
        32           O   tau(  32) = (  0.7500000  0.0000000  0.7500000  )
        33           O   tau(  33) = (  0.2500000  0.5000000  0.2500000  )
        34           O   tau(  34) = (  0.5000000  0.7500000  0.2500000  )
        35           O   tau(  35) = (  0.5000000  0.2500000  0.2500000  )
        36           O   tau(  36) = (  0.0000000  0.7500000  0.7500000  )
        37           O   tau(  37) = (  0.0000000  0.2500000  0.7500000  )
        38           O   tau(  38) = (  0.5000000  0.7500000  0.7500000  )
        39           O   tau(  39) = (  0.5000000  0.2500000  0.7500000  )
        40           O   tau(  40) = (  0.0000000  0.7500000  0.2500000  )

     number of k points=     6  Methfessel-Paxton smearing, width (Ry)=  0.0100
                       cart. coord. in units 2pi/alat
        k(    1) = (   0.0000000   0.0000000   0.0000000), wk =   0.1250000
        k(    2) = (   0.0000000   0.0000000  -0.5000000), wk =   0.1250000
        k(    3) = (   0.0000000  -0.5000000  -0.5000000), wk =   0.2500000
        k(    4) = (  -0.5000000  -0.5000000  -0.5000000), wk =   0.1250000
        k(    5) = (  -0.5000000   0.0000000   0.0000000), wk =   0.2500000
        k(    6) = (  -0.5000000   0.5000000   0.0000000), wk =   0.1250000

                       cryst. coord.
        k(    1) = (   0.0000000   0.0000000   0.0000000), wk =   0.1250000
        k(    2) = (   0.0000000   0.0000000  -0.5000000), wk =   0.1250000
        k(    3) = (   0.0000000  -0.5000000  -0.5000000), wk =   0.2500000
        k(    4) = (  -0.5000000  -0.5000000  -0.5000000), wk =   0.1250000
        k(    5) = (  -0.5000000   0.0000000   0.0000000), wk =   0.2500000
        k(    6) = (  -0.5000000   0.5000000   0.0000000), wk =   0.1250000

     Dense  grid:   208345 G-vectors     FFT dimensions: (  75,  75,  75)

     Smooth grid:    73525 G-vectors     FFT dimensions: (  54,  54,  54)

     Dynamical RAM for                 wfc:       8.25 MB

     Dynamical RAM for     wfc (w. buffer):     107.26 MB

     Dynamical RAM for           str. fact:       3.18 MB

     Dynamical RAM for           local pot:       0.00 MB

     Dynamical RAM for          nlocal pot:      21.07 MB

     Dynamical RAM for                qrad:       4.98 MB

     Dynamical RAM for          rho,v,vnew:       9.66 MB

     Dynamical RAM for               rhoin:       3.22 MB

     Dynamical RAM for            rho*nmix:      25.43 MB

     Dynamical RAM for           G-vectors:       3.12 MB

     Dynamical RAM for          h,s,v(r/c):       0.63 MB

     Dynamical RAM for          <psi|beta>:       2.15 MB

     Dynamical RAM for      wfcinit/wfcrot:      20.80 MB

     Dynamical RAM for           addusdens:     167.70 MB

     Estimated static dynamical RAM per process >     186.78 MB

     Estimated max dynamical RAM per process >     354.48 MB

     Estimated total dynamical RAM >       1.38 GB

     Check: negative core charge=   -0.000014
     Generating pointlists ...
     new r_m :   0.1031 (alat units)  1.5380 (a.u.) for type    1
     new r_m :   0.1458 (alat units)  2.1750 (a.u.) for type    2
     new r_m :   0.1031 (alat units)  1.5380 (a.u.) for type    3
     new r_m :   0.1031 (alat units)  1.5380 (a.u.) for type    4

     Initial potential from superposition of free atoms

     starting charge  375.99958, renormalised to  392.00000

     negative rho (up, down):  1.729E-01 1.729E-01
     Starting wfcs are  272 randomized atomic wfcs

     total cpu time spent up to now is       98.6 secs

     Self-consistent Calculation

     iteration #  1     ecut=    30.00 Ry     beta= 0.40
     CG style diagonalization
     ethr =  1.00E-02,  avg # of iterations =  2.4

     negative rho (up, down):  1.593E-01 1.593E-01

     total cpu time spent up to now is      405.6 secs

     total energy              =   -4250.26571133 Ry
     estimated scf accuracy    <      31.19573530 Ry

     total magnetization       =    -0.00 Bohr mag/cell
     absolute magnetization    =    39.98 Bohr mag/cell

     iteration #  2     ecut=    30.00 Ry     beta= 0.40
     CG style diagonalization
     ethr =  7.96E-03,  avg # of iterations =  3.5

     negative rho (up, down):  1.593E-01 1.593E-01

     total cpu time spent up to now is      816.5 secs

     total energy              =   -4256.28639220 Ry
     estimated scf accuracy    <       9.13016016 Ry

     total magnetization       =     0.00 Bohr mag/cell
     absolute magnetization    =    36.86 Bohr mag/cell

     iteration #  3     ecut=    30.00 Ry     beta= 0.40
     CG style diagonalization
     ethr =  2.33E-03,  avg # of iterations =  3.3

     negative rho (up, down):  1.561E-01 1.561E-01

     total cpu time spent up to now is     1173.9 secs

     total energy              =   -4258.85066450 Ry
     estimated scf accuracy    <       2.93406936 Ry

     total magnetization       =    -0.00 Bohr mag/cell
     absolute magnetization    =    36.62 Bohr mag/cell

     iteration #  4     ecut=    30.00 Ry     beta= 0.40
     CG style diagonalization
     ethr =  7.48E-04,  avg # of iterations =  3.1

     negative rho (up, down):  1.576E-01 1.577E-01

     total cpu time spent up to now is     1520.1 secs

     total energy              =   -4259.18266357 Ry
     estimated scf accuracy    <       0.19854683 Ry

     total magnetization       =    -0.02 Bohr mag/cell
     absolute magnetization    =    33.65 Bohr mag/cell

     iteration #  5     ecut=    30.00 Ry     beta= 0.40
     CG style diagonalization
     c_bands:  1 eigenvalues not converged
     c_bands:  2 eigenvalues not converged
     c_bands:  1 eigenvalues not converged
     c_bands:  2 eigenvalues not converged
     ethr =  5.06E-05,  avg # of iterations =  3.8

     negative rho (up, down):  1.583E-01 1.583E-01

     total cpu time spent up to now is     1851.5 secs

     total energy              =   -4259.24323052 Ry
     estimated scf accuracy    <       0.08213791 Ry

     total magnetization       =     0.12 Bohr mag/cell
     absolute magnetization    =    32.37 Bohr mag/cell

     iteration #  6     ecut=    30.00 Ry     beta= 0.40
     CG style diagonalization
     c_bands:  1 eigenvalues not converged
     ethr =  2.10E-05,  avg # of iterations =  3.5

     negative rho (up, down):  1.583E-01 1.584E-01

     total cpu time spent up to now is     2207.5 secs

     total energy              =   -4259.25397304 Ry
     estimated scf accuracy    <       0.06102487 Ry

     total magnetization       =    -0.49 Bohr mag/cell
     absolute magnetization    =    32.29 Bohr mag/cell

     iteration #  7     ecut=    30.00 Ry     beta= 0.40
     CG style diagonalization
     ethr =  1.56E-05,  avg # of iterations =  3.2

     negative rho (up, down):  1.583E-01 1.583E-01

     total cpu time spent up to now is     2525.7 secs

     total energy              =   -4259.25840343 Ry
     estimated scf accuracy    <       0.10303977 Ry

     total magnetization       =     0.72 Bohr mag/cell
     absolute magnetization    =    32.16 Bohr mag/cell

     iteration #  8     ecut=    30.00 Ry     beta= 0.40
     CG style diagonalization
     ethr =  1.56E-05,  avg # of iterations =  3.0

     negative rho (up, down):  1.583E-01 1.583E-01

     total cpu time spent up to now is     2843.7 secs

     total energy              =   -4259.26514758 Ry
     estimated scf accuracy    <       0.00317907 Ry

     total magnetization       =    -0.01 Bohr mag/cell
     absolute magnetization    =    32.26 Bohr mag/cell

     iteration #  9     ecut=    30.00 Ry     beta= 0.40
     CG style diagonalization
     c_bands:  1 eigenvalues not converged
     c_bands:  1 eigenvalues not converged
     ethr =  8.11E-07,  avg # of iterations =  3.6

     negative rho (up, down):  1.583E-01 1.583E-01

     total cpu time spent up to now is     3241.8 secs

     total energy              =   -4259.26522865 Ry
     estimated scf accuracy    <       0.00336357 Ry

     total magnetization       =    -0.04 Bohr mag/cell
     absolute magnetization    =    32.16 Bohr mag/cell

     iteration # 10     ecut=    30.00 Ry     beta= 0.40
     CG style diagonalization
     c_bands:  1 eigenvalues not converged
     ethr =  8.11E-07,  avg # of iterations =  3.4

     negative rho (up, down):  1.583E-01 1.583E-01

     total cpu time spent up to now is     3620.0 secs

     total energy              =   -4259.26590183 Ry
     estimated scf accuracy    <       0.00233795 Ry

     total magnetization       =    -0.01 Bohr mag/cell
     absolute magnetization    =    32.32 Bohr mag/cell

     iteration # 11     ecut=    30.00 Ry     beta= 0.40
     CG style diagonalization
     c_bands:  1 eigenvalues not converged
     c_bands:  1 eigenvalues not converged
     ethr =  5.96E-07,  avg # of iterations =  3.2

     negative rho (up, down):  1.583E-01 1.583E-01

     total cpu time spent up to now is     3935.7 secs

     total energy              =   -4259.26622400 Ry
     estimated scf accuracy    <       0.00005126 Ry

     total magnetization       =     0.01 Bohr mag/cell
     absolute magnetization    =    32.24 Bohr mag/cell

     iteration # 12     ecut=    30.00 Ry     beta= 0.40
     CG style diagonalization
     ethr =  1.31E-08,  avg # of iterations =  3.8

     negative rho (up, down):  1.583E-01 1.583E-01

     total cpu time spent up to now is     4320.0 secs

     total energy              =   -4259.26625335 Ry
     estimated scf accuracy    <       0.00002046 Ry

     total magnetization       =    -0.01 Bohr mag/cell
     absolute magnetization    =    32.24 Bohr mag/cell

     iteration # 13     ecut=    30.00 Ry     beta= 0.40
     CG style diagonalization
     ethr =  5.22E-09,  avg # of iterations =  3.4

     negative rho (up, down):  1.583E-01 1.583E-01

     Magnetic moment per site:
     atom:    1    charge:   11.7907    magn:   -0.0000    constr:    0.0000
     atom:    2    charge:   11.7916    magn:   -0.0000    constr:    0.0000
     atom:    3    charge:   11.7910    magn:   -0.0001    constr:    0.0000
     atom:    4    charge:   11.7916    magn:   -0.0001    constr:    0.0000
     atom:    5    charge:   11.7910    magn:   -0.0001    constr:    0.0000
     atom:    6    charge:   11.7919    magn:   -0.0001    constr:    0.0000
     atom:    7    charge:   11.7916    magn:   -0.0001    constr:    0.0000
     atom:    8    charge:   11.7910    magn:   -0.0001    constr:    0.0000
     atom:    9    charge:   13.0294    magn:    3.4756    constr:    0.0000
     atom:   10    charge:   13.0294    magn:    3.4756    constr:    0.0000
     atom:   11    charge:   13.0290    magn:   -3.4760    constr:    0.0000
     atom:   12    charge:   13.0290    magn:   -3.4760    constr:    0.0000
     atom:   13    charge:   13.0294    magn:    3.4756    constr:    0.0000
     atom:   14    charge:   13.0294    magn:    3.4756    constr:    0.0000
     atom:   15    charge:   13.0290    magn:   -3.4760    constr:    0.0000
     atom:   16    charge:   13.0290    magn:   -3.4760    constr:    0.0000
     atom:   17    charge:    5.3579    magn:    0.1191    constr:    0.0000
     atom:   18    charge:    5.3586    magn:   -0.0000    constr:    0.0000
     atom:   19    charge:    5.3586    magn:   -0.0000    constr:    0.0000
     atom:   20    charge:    5.3579    magn:    0.1191    constr:    0.0000
     atom:   21    charge:    5.3585    magn:   -0.1191    constr:    0.0000
     atom:   22    charge:    5.3604    magn:   -0.1191    constr:    0.0000
     atom:   23    charge:    5.3599    magn:    0.1192    constr:    0.0000
     atom:   24    charge:    5.3599    magn:    0.1192    constr:    0.0000
     atom:   25    charge:    5.3604    magn:   -0.1191    constr:    0.0000
     atom:   26    charge:    5.3585    magn:   -0.1191    constr:    0.0000
     atom:   27    charge:    5.3606    magn:   -0.0000    constr:    0.0000
     atom:   28    charge:    5.3586    magn:   -0.0000    constr:    0.0000
     atom:   29    charge:    5.3606    magn:   -0.0000    constr:    0.0000
     atom:   30    charge:    5.3586    magn:   -0.0000    constr:    0.0000
     atom:   31    charge:    5.3606    magn:   -0.0000    constr:    0.0000
     atom:   32    charge:    5.3586    magn:   -0.0000    constr:    0.0000
     atom:   33    charge:    5.3606    magn:   -0.0000    constr:    0.0000
     atom:   34    charge:    5.3606    magn:   -0.0000    constr:    0.0000
     atom:   35    charge:    5.3606    magn:   -0.0000    constr:    0.0000
     atom:   36    charge:    5.3586    magn:   -0.0000    constr:    0.0000
     atom:   37    charge:    5.3586    magn:   -0.0000    constr:    0.0000
     atom:   38    charge:    5.3606    magn:   -0.0000    constr:    0.0000
     atom:   39    charge:    5.3606    magn:   -0.0000    constr:    0.0000
     atom:   40    charge:    5.3586    magn:   -0.0000    constr:    0.0000

     total cpu time spent up to now is     4716.3 secs

     End of self-consistent calculation

 ------ SPIN UP ------------


          k = 0.0000 0.0000 0.0000 (  9171 PWs)   bands (ev):

   -78.3795 -78.3792 -78.3788 -78.3787 -73.7325 -73.7322 -73.7319 -73.7319
   -44.4415 -44.4389 -44.4369 -44.4353 -44.3043 -44.3043 -44.3032 -44.3032
   -44.3000 -44.3000 -44.3000 -44.3000 -39.9488 -39.9466 -39.9458 -39.9445
   -39.7757 -39.7756 -39.7746 -39.7746 -39.7718 -39.7718 -39.7718 -39.7718
   -11.6933 -11.6828 -11.6827 -11.6795 -11.6795 -11.6794 -11.6769 -11.6769
   -11.6739 -11.6714 -11.6714 -11.6621 -11.6552 -11.6552 -11.6507 -11.6453
   -11.6442 -11.6441 -11.6441 -11.6436 -11.6436 -11.6427 -11.6427 -11.6420
   -11.6409 -11.6365 -11.6365 -11.6361 -11.6361 -11.6297 -11.6289 -11.6289
   -11.6265 -11.6251 -11.6221 -11.6197 -11.6197 -11.6178 -11.6135 -11.6118
    -7.1021  -6.4313  -6.3369  -6.2995  -5.7848  -5.7455  -5.7012  -5.7012
    -5.6990  -5.6767  -5.6723  -5.5334  -5.5334  -5.5333  -5.5333  -5.4717
    -5.3902  -5.3717  -5.3717  -5.3174  -5.2357  -5.2293  -5.2213  -5.1888
     0.8840   0.8840   0.8870   1.2697   1.2736   1.2736   1.9313   2.0655
     5.1762   5.2911   5.2911   5.3350   5.4497   5.6088   5.6182   5.7177
     5.8659   6.2504   6.3143   6.3874   6.4135   6.5159   6.5444   6.5444
     6.9548   6.9627   6.9695   7.2268   7.2268   7.2637   7.2637   7.3095
     7.4408   7.4408   7.5273   7.5496   7.5496   7.6398   7.6767   7.6768
     7.6878   7.6878   7.6897   7.6897   7.6954   7.7085   7.7085   7.7127
     7.7412   7.9750   8.3071   8.3868   8.3868   8.6189   8.6424   8.6424
     8.9290   9.3399   9.3399   9.3717   9.3717   9.3869   9.6651   9.6651
     9.7254   9.7254   9.7364   9.7690   9.9361   9.9361   9.9416   9.9476
     9.9607  10.0048  10.0048  10.1042  10.1381  10.1381  10.1717  10.1717
    10.1770  10.2623  10.3193  10.3252  10.3252  10.6329  10.6510  10.6511
    10.8500  10.8500  10.8695  10.8789  10.8789  10.8869  11.1361  11.1398
    11.1465  11.2534  12.0584  12.1836  12.2757  12.4153  12.8320  12.8321
    12.8327  12.8737  12.8737  12.8950  13.2252  13.2901  13.2902  13.4006
    13.4444  13.5185  13.5651  13.5651  13.8185  13.8297  13.8508  13.8890
    14.5488  14.7608  14.7647  14.7647  14.7787  14.7787  14.7947  15.2517
    15.3068  15.3179  15.3203  15.3203  15.3479  15.8729  16.2800  16.2833
    16.4970  16.4995  16.4995

     occupation numbers 
     1.0000   1.0000   1.0000   1.0000   1.0000   1.0000   1.0000   1.0000
     1.0000   1.0000   1.0000   1.0000   1.0000   1.0000   1.0000   1.0000
     1.0000   1.0000   1.0000   1.0000   1.0000   1.0000   1.0000   1.0000
     1.0000   1.0000   1.0000   1.0000   1.0000   1.0000   1.0000   1.0000
     1.0000   1.0000   1.0000   1.0000   1.0000   1.0000   1.0000   1.0000
     1.0000   1.0000   1.0000   1.0000   1.0000   1.0000   1.0000   1.0000
     1.0000   1.0000   1.0000   1.0000   1.0000   1.0000   1.0000   1.0000
     1.0000   1.0000   1.0000   1.0000   1.0000   1.0000   1.0000   1.0000
     1.0000   1.0000   1.0000   1.0000   1.0000   1.0000   1.0000   1.0000
     1.0000   1.0000   1.0000   1.0000   1.0000   1.0000   1.0000   1.0000
     1.0000   1.0000   1.0000   1.0000   1.0000   1.0000   1.0000   1.0000
     1.0000   1.0000   1.0000   1.0000   1.0000   1.0000   1.0000   1.0000
     1.0000   1.0000   1.0000   1.0000   1.0000   1.0000   1.0000   1.0000
     1.0000   1.0000   1.0000   1.0000   1.0000   1.0000   1.0000   1.0000
     1.0000   1.0000   1.0000   1.0000   1.0000   1.0000   1.0000   1.0000
     1.0000   1.0000   1.0000   1.0000   1.0000   1.0000   1.0000   1.0000
     1.0000   1.0000   1.0000   1.0000   1.0000   1.0000   1.0000   1.0000
     1.0000   1.0000   1.0000   1.0000   1.0000   1.0000   1.0000   1.0000
     1.0000   1.0000   1.0000   1.0000   1.0000   1.0000   1.0000   1.0000
     1.0000   1.0000   1.0000   1.0000   1.0000   1.0000   1.0000   1.0000
     1.0000   1.0000   1.0000   1.0000   1.0000   1.0000   1.0000   1.0000
     1.0000   1.0000   1.0000   1.0000   1.0000   1.0000   1.0000   1.0000
     1.0000   1.0000   1.0000   1.0000   1.0000   1.0000   1.0000   1.0000
     1.0000   1.0000   1.0000   1.0000   1.0000   1.0000   1.0000   1.0000
     1.0000   1.0000   1.0000   1.0000   1.0000   1.0056  -0.0202  -0.0203
    -0.0209  -0.0352  -0.0352  -0.0310  -0.0000  -0.0000  -0.0000  -0.0000
    -0.0000  -0.0000  -0.0000  -0.0000  -0.0000  -0.0000  -0.0000  -0.0000
    -0.0000  -0.0000  -0.0000  -0.0000  -0.0000  -0.0000  -0.0000  -0.0000
    -0.0000  -0.0000  -0.0000  -0.0000  -0.0000  -0.0000  -0.0000  -0.0000
    -0.0000  -0.0000  -0.0000

          k = 0.0000 0.0000-0.5000 (  9122 PWs)   bands (ev):

   -78.3790 -78.3790 -78.3788 -78.3788 -73.7321 -73.7321 -73.7320 -73.7320
   -44.4394 -44.4394 -44.4360 -44.4360 -44.3012 -44.3012 -44.3012 -44.3012
   -44.3007 -44.3007 -44.3007 -44.3007 -39.9475 -39.9475 -39.9446 -39.9446
   -39.7729 -39.7729 -39.7729 -39.7729 -39.7725 -39.7725 -39.7725 -39.7725
   -11.6771 -11.6769 -11.6766 -11.6764 -11.6682 -11.6680 -11.6651 -11.6651
   -11.6650 -11.6650 -11.6643 -11.6641 -11.6610 -11.6608 -11.6601 -11.6601
   -11.6598 -11.6598 -11.6424 -11.6423 -11.6377 -11.6377 -11.6375 -11.6375
   -11.6371 -11.6368 -11.6364 -11.6364 -11.6361 -11.6361 -11.6338 -11.6336
   -11.6330 -11.6330 -11.6328 -11.6328 -11.6213 -11.6211 -11.6128 -11.6126
    -6.8137  -6.8136  -6.1844  -6.1843  -6.0651  -6.0649  -5.6246  -5.6243
    -5.6196  -5.6196  -5.6196  -5.6196  -5.4535  -5.4535  -5.4535  -5.4535
    -5.3800  -5.3799  -5.3603  -5.3599  -5.2526  -5.2523  -5.2252  -5.2252
     1.0837   1.0837   1.0838   1.0839   1.3090   1.3091   1.6099   1.6100
     5.5645   5.5645   5.7887   5.7887   5.9566   5.9566   5.9567   5.9567
     6.2539   6.2541   6.2783   6.2783   6.2872   6.2874   6.3961   6.3961
     6.6196   6.6196   6.8649   6.8649   6.8650   6.8650   7.0569   7.0569
     7.0569   7.0569   7.1375   7.1375   7.1788   7.1792   7.2801   7.2806
     7.8362   7.8362   7.8363   7.8363   8.2706   8.2706   8.3571   8.3571
     8.3572   8.3572   8.4483   8.4483   8.5978   8.5978   8.5978   8.5978
     8.7289   8.7290   9.1266   9.1266   9.3054   9.3055   9.4943   9.4943
     9.4945   9.4945   9.5573   9.5573   9.6523   9.6523   9.6524   9.6524
    10.0380  10.0380  10.0380  10.0380  10.2438  10.2438  10.2440  10.2441
    10.4170  10.4171  10.4485  10.4485  10.4486  10.4487  10.5558  10.5559
    10.5560  10.5560  10.8744  10.8744  11.1410  11.1410  11.2269  11.2270
    11.7137  11.7138  11.8564  11.8565  12.9344  12.9344  12.9755  12.9755
    12.9755  12.9756  13.2152  13.2153  13.2153  13.2153  13.4169  13.4171
    13.6351  13.6352  13.6978  13.6979  14.2776  14.2777  14.5780  14.5781
    14.6109  14.6111  14.7786  14.8457  14.8475  14.9934  14.9938  14.9939
    14.9939  15.4200  15.4200  15.4760  15.4760  15.4762  15.4762  15.8819
    15.8819  15.8821  15.8821

     occupation numbers 
     1.0000   1.0000   1.0000   1.0000   1.0000   1.0000   1.0000   1.0000
     1.0000   1.0000   1.0000   1.0000   1.0000   1.0000   1.0000   1.0000
     1.0000   1.0000   1.0000   1.0000   1.0000   1.0000   1.0000   1.0000
     1.0000   1.0000   1.0000   1.0000   1.0000   1.0000   1.0000   1.0000
     1.0000   1.0000   1.0000   1.0000   1.0000   1.0000   1.0000   1.0000
     1.0000   1.0000   1.0000   1.0000   1.0000   1.0000   1.0000   1.0000
     1.0000   1.0000   1.0000   1.0000   1.0000   1.0000   1.0000   1.0000
     1.0000   1.0000   1.0000   1.0000   1.0000   1.0000   1.0000   1.0000
     1.0000   1.0000   1.0000   1.0000   1.0000   1.0000   1.0000   1.0000
     1.0000   1.0000   1.0000   1.0000   1.0000   1.0000   1.0000   1.0000
     1.0000   1.0000   1.0000   1.0000   1.0000   1.0000   1.0000   1.0000
     1.0000   1.0000   1.0000   1.0000   1.0000   1.0000   1.0000   1.0000
     1.0000   1.0000   1.0000   1.0000   1.0000   1.0000   1.0000   1.0000
     1.0000   1.0000   1.0000   1.0000   1.0000   1.0000   1.0000   1.0000
     1.0000   1.0000   1.0000   1.0000   1.0000   1.0000   1.0000   1.0000
     1.0000   1.0000   1.0000   1.0000   1.0000   1.0000   1.0000   1.0000
     1.0000   1.0000   1.0000   1.0000   1.0000   1.0000   1.0000   1.0000
     1.0000   1.0000   1.0000   1.0000   1.0000   1.0000   1.0000   1.0000
     1.0000   1.0000   1.0000   1.0000   1.0000   1.0000   1.0000   1.0000
     1.0000   1.0000   1.0000   1.0000   1.0000   1.0000   1.0000   1.0000
     1.0000   1.0000   1.0000   1.0000   1.0000   1.0000   1.0000   1.0000
     1.0000   1.0000   1.0000   1.0000   1.0000   1.0000   1.0000   1.0000
     1.0000   1.0000   1.0000   1.0000   1.0000   1.0000   1.0000   1.0000
     1.0000   1.0000   1.0000   1.0000   1.0000   1.0000   1.0000   1.0000
     1.0000   1.0000   1.0000   1.0000  -0.0181  -0.0181  -0.0077  -0.0077
    -0.0077  -0.0077  -0.0000  -0.0000  -0.0000  -0.0000  -0.0000  -0.0000
    -0.0000  -0.0000  -0.0000  -0.0000  -0.0000  -0.0000  -0.0000  -0.0000
    -0.0000  -0.0000  -0.0000  -0.0000  -0.0000  -0.0000  -0.0000  -0.0000
    -0.0000  -0.0000  -0.0000  -0.0000  -0.0000  -0.0000  -0.0000  -0.0000
    -0.0000  -0.0000  -0.0000

          k = 0.0000-0.5000-0.5000 (  9220 PWs)   bands (ev):

   -78.3792 -78.3792 -78.3792 -78.3792 -73.7322 -73.7322 -73.7322 -73.7322
   -44.4394 -44.4394 -44.4394 -44.4394 -44.3031 -44.3031 -44.3031 -44.3031
   -44.3019 -44.3019 -44.3019 -44.3019 -39.9475 -39.9475 -39.9475 -39.9475
   -39.7745 -39.7745 -39.7745 -39.7745 -39.7735 -39.7735 -39.7735 -39.7735
   -11.6705 -11.6704 -11.6703 -11.6702 -11.6617 -11.6616 -11.6615 -11.6614
   -11.6571 -11.6570 -11.6570 -11.6569 -11.6519 -11.6518 -11.6517 -11.6516
   -11.6509 -11.6508 -11.6508 -11.6507 -11.6490 -11.6490 -11.6488 -11.6487
   -11.6482 -11.6482 -11.6480 -11.6480 -11.6358 -11.6358 -11.6356 -11.6355
   -11.6292 -11.6292 -11.6290 -11.6290 -11.6259 -11.6258 -11.6257 -11.6256
    -6.5491  -6.5491  -6.5490  -6.5490  -5.9175  -5.9175  -5.9173  -5.9173
    -5.5382  -5.5382  -5.5382  -5.5382  -5.4415  -5.4415  -5.4413  -5.4413
    -5.3146  -5.3146  -5.3145  -5.3145  -5.2692  -5.2692  -5.2690  -5.2690
     1.2008   1.2008   1.2009   1.2010   1.3286   1.3286   1.3288   1.3288
     5.8966   5.8966   5.8966   5.8966   6.0927   6.0927   6.0927   6.0927
     6.2027   6.2027   6.2028   6.2029   6.3410   6.3410   6.3410   6.3410
     6.5939   6.5939   6.5939   6.5939   7.1365   7.1365   7.1366   7.1366
     7.2452   7.2453   7.2454   7.2454   7.2835   7.2835   7.2838   7.2838
     7.3937   7.3937   7.3937   7.3937   7.7903   7.7903   7.7904   7.7904
     8.5379   8.5379   8.5380   8.5380   8.7115   8.7115   8.7117   8.7117
     8.7333   8.7333   8.7333   8.7333   9.4819   9.4819   9.4819   9.4819
     9.6249   9.6249   9.6249   9.6249  10.0025  10.0025  10.0026  10.0026
    10.0379  10.0379  10.0380  10.0380  10.1058  10.1059  10.1060  10.1061
    10.1319  10.1319  10.1319  10.1319  10.4852  10.4852  10.4852  10.4852
    10.5090  10.5090  10.5091  10.5091  11.4916  11.4916  11.4916  11.4917
    12.2875  12.2875  12.2876  12.2876  12.9161  12.9161  12.9161  12.9162
    13.0388  13.0388  13.0388  13.0388  13.1303  13.1303  13.1304  13.1304
    13.8575  13.8576  13.8576  13.8576  14.5946  14.5946  14.5947  14.5950
    14.6096  14.6096  14.6097  14.6098  14.8664  14.8672  15.1775  15.2146
    15.2216  15.2216  15.2218  15.3059  15.3059  15.3078  15.3080  15.8478
    15.8489  15.8489  15.8490

     occupation numbers 
     1.0000   1.0000   1.0000   1.0000   1.0000   1.0000   1.0000   1.0000
     1.0000   1.0000   1.0000   1.0000   1.0000   1.0000   1.0000   1.0000
     1.0000   1.0000   1.0000   1.0000   1.0000   1.0000   1.0000   1.0000
     1.0000   1.0000   1.0000   1.0000   1.0000   1.0000   1.0000   1.0000
     1.0000   1.0000   1.0000   1.0000   1.0000   1.0000   1.0000   1.0000
     1.0000   1.0000   1.0000   1.0000   1.0000   1.0000   1.0000   1.0000
     1.0000   1.0000   1.0000   1.0000   1.0000   1.0000   1.0000   1.0000
     1.0000   1.0000   1.0000   1.0000   1.0000   1.0000   1.0000   1.0000
     1.0000   1.0000   1.0000   1.0000   1.0000   1.0000   1.0000   1.0000
     1.0000   1.0000   1.0000   1.0000   1.0000   1.0000   1.0000   1.0000
     1.0000   1.0000   1.0000   1.0000   1.0000   1.0000   1.0000   1.0000
     1.0000   1.0000   1.0000   1.0000   1.0000   1.0000   1.0000   1.0000
     1.0000   1.0000   1.0000   1.0000   1.0000   1.0000   1.0000   1.0000
     1.0000   1.0000   1.0000   1.0000   1.0000   1.0000   1.0000   1.0000
     1.0000   1.0000   1.0000   1.0000   1.0000   1.0000   1.0000   1.0000
     1.0000   1.0000   1.0000   1.0000   1.0000   1.0000   1.0000   1.0000
     1.0000   1.0000   1.0000   1.0000   1.0000   1.0000   1.0000   1.0000
     1.0000   1.0000   1.0000   1.0000   1.0000   1.0000   1.0000   1.0000
     1.0000   1.0000   1.0000   1.0000   1.0000   1.0000   1.0000   1.0000
     1.0000   1.0000   1.0000   1.0000   1.0000   1.0000   1.0000   1.0000
     1.0000   1.0000   1.0000   1.0000   1.0000   1.0000   1.0000   1.0000
     1.0000   1.0000   1.0000   1.0000   1.0000   1.0000   1.0000   1.0000
     1.0000   1.0000   1.0000   1.0000   1.0000   1.0000   1.0000   1.0000
     1.0000   1.0000   1.0000   1.0000   1.0000   1.0000   1.0000   1.0000
     1.0001   1.0001   1.0001   1.0001  -0.0242  -0.0242  -0.0242  -0.0241
    -0.0013  -0.0013  -0.0013  -0.0013  -0.0000  -0.0000  -0.0000  -0.0000
    -0.0000  -0.0000  -0.0000  -0.0000  -0.0000  -0.0000  -0.0000  -0.0000
    -0.0000  -0.0000  -0.0000  -0.0000  -0.0000  -0.0000  -0.0000  -0.0000
    -0.0000  -0.0000  -0.0000  -0.0000  -0.0000  -0.0000  -0.0000  -0.0000
    -0.0000  -0.0000  -0.0000

          k =-0.5000-0.5000-0.5000 (  9328 PWs)   bands (ev):

   -78.3794 -78.3794 -78.3794 -78.3794 -73.7325 -73.7325 -73.7325 -73.7325
   -44.4407 -44.4407 -44.4407 -44.4407 -44.3048 -44.3048 -44.3048 -44.3048
   -44.3040 -44.3040 -44.3040 -44.3040 -39.9486 -39.9486 -39.9486 -39.9486
   -39.7760 -39.7760 -39.7760 -39.7760 -39.7753 -39.7753 -39.7753 -39.7753
   -11.6585 -11.6585 -11.6584 -11.6584 -11.6557 -11.6557 -11.6556 -11.6556
   -11.6519 -11.6519 -11.6518 -11.6517 -11.6507 -11.6506 -11.6505 -11.6505
   -11.6496 -11.6496 -11.6496 -11.6496 -11.6471 -11.6470 -11.6468 -11.6468
   -11.6434 -11.6434 -11.6433 -11.6433 -11.6423 -11.6422 -11.6422 -11.6422
   -11.6418 -11.6418 -11.6416 -11.6416 -11.6392 -11.6392 -11.6390 -11.6390
    -6.3457  -6.3457  -6.3456  -6.3456  -6.2538  -6.2538  -6.2537  -6.2537
    -5.4567  -5.4567  -5.4565  -5.4565  -5.3499  -5.3499  -5.3499  -5.3499
    -5.3345  -5.3345  -5.3345  -5.3345  -5.2926  -5.2926  -5.2922  -5.2922
     1.2672   1.2672   1.2673   1.2673   1.2716   1.2716   1.2718   1.2718
     6.1157   6.1157   6.1158   6.1158   6.2600   6.2600   6.2601   6.2601
     6.3183   6.3183   6.3184   6.3184   6.4699   6.4699   6.4700   6.4700
     6.5335   6.5335   6.5336   6.5336   6.6580   6.6581   6.6581   6.6581
     6.8450   6.8450   6.8450   6.8450   7.2509   7.2509   7.2511   7.2511
     7.6068   7.6068   7.6068   7.6068   7.6272   7.6273   7.6276   7.6276
     8.2292   8.2292   8.2292   8.2292   8.5123   8.5123   8.5124   8.5124
     9.3754   9.3754   9.3755   9.3755   9.6815   9.6815   9.6818   9.6818
     9.7953   9.7954   9.7954   9.7954   9.8783   9.8783   9.8783   9.8783
    10.1514  10.1514  10.1514  10.1514  10.2071  10.2071  10.2071  10.2072
    10.2264  10.2264  10.2264  10.2265  10.2484  10.2484  10.2485  10.2485
    10.2983  10.2983  10.2985  10.2985  12.2559  12.2559  12.2560  12.2560
    12.3831  12.3831  12.3831  12.3831  12.6026  12.6027  12.6027  12.6027
    12.7832  12.7832  12.7832  12.7832  12.9935  12.9935  12.9935  12.9938
    13.5260  13.5262  13.5264  13.5265  13.6265  13.6266  13.6266  13.6267
    14.8624  14.8804  14.9163  15.5444  15.5445  15.5445  15.5446  15.5914
    15.5914  15.5914  15.5914  15.6117  15.6117  15.6118  15.6118  15.6450
    15.6450  15.6453  15.6453

     occupation numbers 
     1.0000   1.0000   1.0000   1.0000   1.0000   1.0000   1.0000   1.0000
     1.0000   1.0000   1.0000   1.0000   1.0000   1.0000   1.0000   1.0000
     1.0000   1.0000   1.0000   1.0000   1.0000   1.0000   1.0000   1.0000
     1.0000   1.0000   1.0000   1.0000   1.0000   1.0000   1.0000   1.0000
     1.0000   1.0000   1.0000   1.0000   1.0000   1.0000   1.0000   1.0000
     1.0000   1.0000   1.0000   1.0000   1.0000   1.0000   1.0000   1.0000
     1.0000   1.0000   1.0000   1.0000   1.0000   1.0000   1.0000   1.0000
     1.0000   1.0000   1.0000   1.0000   1.0000   1.0000   1.0000   1.0000
     1.0000   1.0000   1.0000   1.0000   1.0000   1.0000   1.0000   1.0000
     1.0000   1.0000   1.0000   1.0000   1.0000   1.0000   1.0000   1.0000
     1.0000   1.0000   1.0000   1.0000   1.0000   1.0000   1.0000   1.0000
     1.0000   1.0000   1.0000   1.0000   1.0000   1.0000   1.0000   1.0000
     1.0000   1.0000   1.0000   1.0000   1.0000   1.0000   1.0000   1.0000
     1.0000   1.0000   1.0000   1.0000   1.0000   1.0000   1.0000   1.0000
     1.0000   1.0000   1.0000   1.0000   1.0000   1.0000   1.0000   1.0000
     1.0000   1.0000   1.0000   1.0000   1.0000   1.0000   1.0000   1.0000
     1.0000   1.0000   1.0000   1.0000   1.0000   1.0000   1.0000   1.0000
     1.0000   1.0000   1.0000   1.0000   1.0000   1.0000   1.0000   1.0000
     1.0000   1.0000   1.0000   1.0000   1.0000   1.0000   1.0000   1.0000
     1.0000   1.0000   1.0000   1.0000   1.0000   1.0000   1.0000   1.0000
     1.0000   1.0000   1.0000   1.0000   1.0000   1.0000   1.0000   1.0000
     1.0000   1.0000   1.0000   1.0000   1.0000   1.0000   1.0000   1.0000
     1.0000   1.0000   1.0000   1.0000   1.0000   1.0000   1.0000   1.0000
     1.0000   1.0000   1.0000   1.0000   1.0000   1.0000   1.0000   1.0000
     1.0023   1.0023   1.0023   1.0023   0.9692   0.9691   0.9690   0.9690
     0.0803   0.0803   0.0802   0.0802  -0.0049  -0.0049  -0.0049  -0.0048
    -0.0000  -0.0000  -0.0000  -0.0000  -0.0000  -0.0000  -0.0000  -0.0000
    -0.0000  -0.0000  -0.0000  -0.0000  -0.0000  -0.0000  -0.0000  -0.0000
    -0.0000  -0.0000  -0.0000  -0.0000  -0.0000  -0.0000  -0.0000  -0.0000
    -0.0000  -0.0000  -0.0000

          k =-0.5000 0.0000 0.0000 (  9122 PWs)   bands (ev):

   -78.3789 -78.3789 -78.3789 -78.3789 -73.7321 -73.7321 -73.7320 -73.7320
   -44.4379 -44.4379 -44.4366 -44.4366 -44.3026 -44.3026 -44.3016 -44.3016
   -44.3004 -44.3004 -44.3003 -44.3003 -39.9456 -39.9456 -39.9456 -39.9456
   -39.7740 -39.7740 -39.7732 -39.7732 -39.7722 -39.7722 -39.7721 -39.7721
   -11.6857 -11.6856 -11.6792 -11.6791 -11.6692 -11.6691 -11.6640 -11.6639
   -11.6624 -11.6624 -11.6611 -11.6610 -11.6600 -11.6600 -11.6554 -11.6554
   -11.6538 -11.6537 -11.6435 -11.6434 -11.6430 -11.6429 -11.6376 -11.6375
   -11.6365 -11.6364 -11.6360 -11.6360 -11.6357 -11.6357 -11.6306 -11.6305
   -11.6291 -11.6291 -11.6284 -11.6283 -11.6282 -11.6282 -11.6182 -11.6181
    -6.8210  -6.8210  -6.1263  -6.1263  -6.0969  -6.0969  -5.7272  -5.7272
    -5.6196  -5.6196  -5.5279  -5.5279  -5.4534  -5.4534  -5.4488  -5.4488
    -5.4033  -5.4033  -5.3236  -5.3236  -5.2917  -5.2917  -5.2112  -5.2112
     1.0817   1.0817   1.0853   1.0854   1.3068   1.3068   1.6121   1.6122
     5.4022   5.4022   5.7583   5.7583   5.9505   5.9505   5.9940   5.9940
     6.0029   6.0029   6.3791   6.3791   6.5024   6.5024   6.5309   6.5309
     6.7657   6.7658   6.7801   6.7801   6.7988   6.7988   7.0080   7.0080
     7.2412   7.2412   7.3148   7.3148   7.3907   7.3907   7.4173   7.4173
     7.5441   7.5441   7.7620   7.7621   7.8163   7.8163   8.1995   8.1995
     8.4034   8.4034   8.5505   8.5505   8.6208   8.6208   8.6355   8.6356
     8.9188   8.9188   9.1729   9.1730   9.2726   9.2726   9.3318   9.3318
     9.4763   9.4763   9.5501   9.5501   9.9345   9.9345   9.9650   9.9650
    10.0010  10.0010  10.0147  10.0147  10.0997  10.0997  10.1530  10.1530
    10.2708  10.2708  10.2940  10.2940  10.3182  10.3182  10.4575  10.4575
    10.5187  10.5187  10.5669  10.5669  10.8562  10.8562  11.5689  11.5689
    11.8305  11.8305  12.8308  12.8308  12.8478  12.8478  13.0314  13.0314
    13.0826  13.0826  13.2949  13.2949  13.3202  13.3202  13.3333  13.3333
    13.5284  13.5287  13.6818  13.6819  13.7947  13.7949  14.2856  14.2856
    14.5887  14.5889  14.5890  14.5903  14.9884  14.9884  14.9921  14.9921
    15.1403  15.1412  15.4237  15.4885  15.4886  15.4887  15.4887  15.8809
    15.8809  15.8871  15.8871

     occupation numbers 
     1.0000   1.0000   1.0000   1.0000   1.0000   1.0000   1.0000   1.0000
     1.0000   1.0000   1.0000   1.0000   1.0000   1.0000   1.0000   1.0000
     1.0000   1.0000   1.0000   1.0000   1.0000   1.0000   1.0000   1.0000
     1.0000   1.0000   1.0000   1.0000   1.0000   1.0000   1.0000   1.0000
     1.0000   1.0000   1.0000   1.0000   1.0000   1.0000   1.0000   1.0000
     1.0000   1.0000   1.0000   1.0000   1.0000   1.0000   1.0000   1.0000
     1.0000   1.0000   1.0000   1.0000   1.0000   1.0000   1.0000   1.0000
     1.0000   1.0000   1.0000   1.0000   1.0000   1.0000   1.0000   1.0000
     1.0000   1.0000   1.0000   1.0000   1.0000   1.0000   1.0000   1.0000
     1.0000   1.0000   1.0000   1.0000   1.0000   1.0000   1.0000   1.0000
     1.0000   1.0000   1.0000   1.0000   1.0000   1.0000   1.0000   1.0000
     1.0000   1.0000   1.0000   1.0000   1.0000   1.0000   1.0000   1.0000
     1.0000   1.0000   1.0000   1.0000   1.0000   1.0000   1.0000   1.0000
     1.0000   1.0000   1.0000   1.0000   1.0000   1.0000   1.0000   1.0000
     1.0000   1.0000   1.0000   1.0000   1.0000   1.0000   1.0000   1.0000
     1.0000   1.0000   1.0000   1.0000   1.0000   1.0000   1.0000   1.0000
     1.0000   1.0000   1.0000   1.0000   1.0000   1.0000   1.0000   1.0000
     1.0000   1.0000   1.0000   1.0000   1.0000   1.0000   1.0000   1.0000
     1.0000   1.0000   1.0000   1.0000   1.0000   1.0000   1.0000   1.0000
     1.0000   1.0000   1.0000   1.0000   1.0000   1.0000   1.0000   1.0000
     1.0000   1.0000   1.0000   1.0000   1.0000   1.0000   1.0000   1.0000
     1.0000   1.0000   1.0000   1.0000   1.0000   1.0000   1.0000   1.0000
     1.0000   1.0000   1.0000   1.0000   1.0000   1.0000   1.0000   1.0000
     1.0000   1.0000   1.0000   1.0000   1.0000   1.0000   1.0000   1.0000
     1.0000   1.0000  -0.0190  -0.0191  -0.0312  -0.0312  -0.0016  -0.0016
    -0.0003  -0.0003  -0.0000  -0.0000  -0.0000  -0.0000  -0.0000  -0.0000
    -0.0000  -0.0000  -0.0000  -0.0000  -0.0000  -0.0000  -0.0000  -0.0000
    -0.0000  -0.0000  -0.0000  -0.0000  -0.0000  -0.0000  -0.0000  -0.0000
    -0.0000  -0.0000  -0.0000  -0.0000  -0.0000  -0.0000  -0.0000  -0.0000
    -0.0000  -0.0000  -0.0000

          k =-0.5000 0.5000 0.0000 (  9220 PWs)   bands (ev):

   -78.3794 -78.3794 -78.3789 -78.3789 -73.7324 -73.7324 -73.7321 -73.7321
   -44.4397 -44.4397 -44.4367 -44.4367 -44.3053 -44.3053 -44.3032 -44.3032
   -44.3024 -44.3024 -44.3014 -44.3014 -39.9472 -39.9472 -39.9457 -39.9457
   -39.7766 -39.7766 -39.7746 -39.7746 -39.7739 -39.7739 -39.7730 -39.7730
   -11.6768 -11.6768 -11.6754 -11.6754 -11.6637 -11.6637 -11.6620 -11.6619
   -11.6604 -11.6604 -11.6587 -11.6587 -11.6488 -11.6487 -11.6487 -11.6485
   -11.6456 -11.6456 -11.6428 -11.6427 -11.6422 -11.6421 -11.6421 -11.6419
   -11.6419 -11.6419 -11.6409 -11.6409 -11.6376 -11.6376 -11.6375 -11.6375
   -11.6345 -11.6345 -11.6343 -11.6343 -11.6342 -11.6342 -11.6303 -11.6303
    -6.6028  -6.6028  -6.4976  -6.4976  -5.8938  -5.8938  -5.8776  -5.8776
    -5.7019  -5.7019  -5.4774  -5.4774  -5.4025  -5.4025  -5.3886  -5.3886
    -5.3739  -5.3739  -5.3106  -5.3106  -5.2946  -5.2946  -5.2378  -5.2378
     1.1888   1.1888   1.2089   1.2089   1.3255   1.3255   1.3358   1.3358
     5.4503   5.4503   5.8419   5.8419   6.1643   6.1643   6.1644   6.1644
     6.2746   6.2746   6.4484   6.4484   6.4800   6.4800   6.5835   6.5835
     6.7934   6.7934   6.8528   6.8528   6.8548   6.8548   6.8715   6.8715
     6.9226   6.9226   7.1069   7.1069   7.1962   7.1962   7.2608   7.2608
     7.6179   7.6179   7.6480   7.6480   7.7347   7.7347   8.1748   8.1748
     8.2548   8.2548   8.2828   8.2828   8.3338   8.3338   8.7295   8.7295
     9.0671   9.0671   9.2792   9.2792   9.3941   9.3942   9.4497   9.4497
     9.5478   9.5478   9.6049   9.6049   9.8585   9.8585   9.8671   9.8671
     9.9772   9.9772  10.0027  10.0027  10.1113  10.1113  10.1189  10.1189
    10.1488  10.1488  10.1910  10.1910  10.2652  10.2652  10.4598  10.4598
    10.4635  10.4635  10.6001  10.6001  10.7361  10.7361  12.3497  12.3497
    12.4264  12.4264  12.7592  12.7592  12.7862  12.7862  12.8595  12.8595
    13.1872  13.1873  13.1941  13.1942  13.2213  13.2213  13.2753  13.2755
    13.5940  13.5940  13.8493  13.8494  13.9103  13.9104  14.5020  14.5020
    14.5332  14.5333  14.6998  14.6999  14.7158  14.7163  14.9247  15.2148
    15.2149  15.2214  15.2214  15.2574  15.2608  15.3413  15.3413  15.7982
    15.7982  15.8925  15.8926

     occupation numbers 
     1.0000   1.0000   1.0000   1.0000   1.0000   1.0000   1.0000   1.0000
     1.0000   1.0000   1.0000   1.0000   1.0000   1.0000   1.0000   1.0000
     1.0000   1.0000   1.0000   1.0000   1.0000   1.0000   1.0000   1.0000
     1.0000   1.0000   1.0000   1.0000   1.0000   1.0000   1.0000   1.0000
     1.0000   1.0000   1.0000   1.0000   1.0000   1.0000   1.0000   1.0000
     1.0000   1.0000   1.0000   1.0000   1.0000   1.0000   1.0000   1.0000
     1.0000   1.0000   1.0000   1.0000   1.0000   1.0000   1.0000   1.0000
     1.0000   1.0000   1.0000   1.0000   1.0000   1.0000   1.0000   1.0000
     1.0000   1.0000   1.0000   1.0000   1.0000   1.0000   1.0000   1.0000
     1.0000   1.0000   1.0000   1.0000   1.0000   1.0000   1.0000   1.0000
     1.0000   1.0000   1.0000   1.0000   1.0000   1.0000   1.0000   1.0000
     1.0000   1.0000   1.0000   1.0000   1.0000   1.0000   1.0000   1.0000
     1.0000   1.0000   1.0000   1.0000   1.0000   1.0000   1.0000   1.0000
     1.0000   1.0000   1.0000   1.0000   1.0000   1.0000   1.0000   1.0000
     1.0000   1.0000   1.0000   1.0000   1.0000   1.0000   1.0000   1.0000
     1.0000   1.0000   1.0000   1.0000   1.0000   1.0000   1.0000   1.0000
     1.0000   1.0000   1.0000   1.0000   1.0000   1.0000   1.0000   1.0000
     1.0000   1.0000   1.0000   1.0000   1.0000   1.0000   1.0000   1.0000
     1.0000   1.0000   1.0000   1.0000   1.0000   1.0000   1.0000   1.0000
     1.0000   1.0000   1.0000   1.0000   1.0000   1.0000   1.0000   1.0000
     1.0000   1.0000   1.0000   1.0000   1.0000   1.0000   1.0000   1.0000
     1.0000   1.0000   1.0000   1.0000   1.0000   1.0000   1.0000   1.0000
     1.0000   1.0000   1.0000   1.0000   1.0000   1.0000   1.0000   1.0000
     1.0000   1.0000   1.0000   1.0000   1.0000   1.0000   1.0008   1.0008
     1.0074   1.0074   0.1749   0.1749   0.0706   0.0705  -0.0348  -0.0348
    -0.0000  -0.0000  -0.0000  -0.0000  -0.0000  -0.0000  -0.0000  -0.0000
    -0.0000  -0.0000  -0.0000  -0.0000  -0.0000  -0.0000  -0.0000  -0.0000
    -0.0000  -0.0000  -0.0000  -0.0000  -0.0000  -0.0000  -0.0000  -0.0000
    -0.0000  -0.0000  -0.0000  -0.0000  -0.0000  -0.0000  -0.0000  -0.0000
    -0.0000  -0.0000  -0.0000

 ------ SPIN DOWN ----------


          k = 0.0000 0.0000 0.0000 (  9171 PWs)   bands (ev):

   -78.3795 -78.3792 -78.3788 -78.3787 -73.7327 -73.7325 -73.7322 -73.7322
   -44.4410 -44.4383 -44.4363 -44.4347 -44.3046 -44.3046 -44.3036 -44.3035
   -44.3004 -44.3003 -44.3003 -44.3003 -39.9489 -39.9466 -39.9458 -39.9445
   -39.7760 -39.7760 -39.7750 -39.7750 -39.7721 -39.7721 -39.7721 -39.7721
   -11.6934 -11.6828 -11.6827 -11.6795 -11.6795 -11.6795 -11.6769 -11.6769
   -11.6739 -11.6714 -11.6714 -11.6621 -11.6553 -11.6552 -11.6507 -11.6454
   -11.6442 -11.6441 -11.6441 -11.6436 -11.6436 -11.6428 -11.6428 -11.6421
   -11.6409 -11.6365 -11.6365 -11.6361 -11.6361 -11.6298 -11.6290 -11.6290
   -11.6265 -11.6252 -11.6221 -11.6198 -11.6198 -11.6178 -11.6135 -11.6118
    -7.1023  -6.4325  -6.3371  -6.2987  -5.7859  -5.7460  -5.7013  -5.7013
    -5.7009  -5.6768  -5.6724  -5.5335  -5.5335  -5.5334  -5.5334  -5.4697
    -5.3891  -5.3718  -5.3718  -5.3183  -5.2351  -5.2294  -5.2214  -5.1878
     0.8838   0.8838   0.8868   1.2696   1.2734   1.2734   1.9311   2.0653
     5.1757   5.2909   5.2909   5.3347   5.4487   5.6084   5.6184   5.7175
     5.8658   6.2503   6.3142   6.3874   6.4134   6.5157   6.5442   6.5442
     6.9558   6.9637   6.9690   7.2267   7.2267   7.2633   7.2633   7.3089
     7.4411   7.4411   7.5261   7.5496   7.5496   7.6392   7.6765   7.6765
     7.6878   7.6878   7.6895   7.6895   7.6952   7.7084   7.7084   7.7127
     7.7422   7.9749   8.3069   8.3865   8.3865   8.6188   8.6433   8.6433
     8.9280   9.3399   9.3399   9.3716   9.3716   9.3869   9.6651   9.6651
     9.7255   9.7255   9.7363   9.7685   9.9357   9.9357   9.9417   9.9478
     9.9607  10.0046  10.0046  10.1035  10.1376  10.1376  10.1717  10.1717
    10.1776  10.2618  10.3192  10.3258  10.3258  10.6325  10.6500  10.6500
    10.8501  10.8501  10.8696  10.8793  10.8793  10.8870  11.1363  11.1400
    11.1466  11.2535  12.0580  12.1833  12.2757  12.4151  12.8319  12.8319
    12.8322  12.8736  12.8736  12.8939  13.2242  13.2900  13.2901  13.3995
    13.4434  13.5187  13.5653  13.5653  13.8182  13.8294  13.8508  13.8892
    14.5491  14.7605  14.7646  14.7646  14.7784  14.7784  14.7948  15.2516
    15.3066  15.3177  15.3182  15.3199  15.3199  15.3479  16.2799  16.2831
    16.4966  16.4995  16.4995

     occupation numbers 
     1.0000   1.0000   1.0000   1.0000   1.0000   1.0000   1.0000   1.0000
     1.0000   1.0000   1.0000   1.0000   1.0000   1.0000   1.0000   1.0000
     1.0000   1.0000   1.0000   1.0000   1.0000   1.0000   1.0000   1.0000
     1.0000   1.0000   1.0000   1.0000   1.0000   1.0000   1.0000   1.0000
     1.0000   1.0000   1.0000   1.0000   1.0000   1.0000   1.0000   1.0000
     1.0000   1.0000   1.0000   1.0000   1.0000   1.0000   1.0000   1.0000
     1.0000   1.0000   1.0000   1.0000   1.0000   1.0000   1.0000   1.0000
     1.0000   1.0000   1.0000   1.0000   1.0000   1.0000   1.0000   1.0000
     1.0000   1.0000   1.0000   1.0000   1.0000   1.0000   1.0000   1.0000
     1.0000   1.0000   1.0000   1.0000   1.0000   1.0000   1.0000   1.0000
     1.0000   1.0000   1.0000   1.0000   1.0000   1.0000   1.0000   1.0000
     1.0000   1.0000   1.0000   1.0000   1.0000   1.0000   1.0000   1.0000
     1.0000   1.0000   1.0000   1.0000   1.0000   1.0000   1.0000   1.0000
     1.0000   1.0000   1.0000   1.0000   1.0000   1.0000   1.0000   1.0000
     1.0000   1.0000   1.0000   1.0000   1.0000   1.0000   1.0000   1.0000
     1.0000   1.0000   1.0000   1.0000   1.0000   1.0000   1.0000   1.0000
     1.0000   1.0000   1.0000   1.0000   1.0000   1.0000   1.0000   1.0000
     1.0000   1.0000   1.0000   1.0000   1.0000   1.0000   1.0000   1.0000
     1.0000   1.0000   1.0000   1.0000   1.0000   1.0000   1.0000   1.0000
     1.0000   1.0000   1.0000   1.0000   1.0000   1.0000   1.0000   1.0000
     1.0000   1.0000   1.0000   1.0000   1.0000   1.0000   1.0000   1.0000
     1.0000   1.0000   1.0000   1.0000   1.0000   1.0000   1.0000   1.0000
     1.0000   1.0000   1.0000   1.0000   1.0000   1.0000   1.0000   1.0000
     1.0000   1.0000   1.0000   1.0000   1.0000   1.0000   1.0000   1.0000
     1.0000   1.0000   1.0000   1.0000   1.0000   1.0056  -0.0201  -0.0201
    -0.0204  -0.0352  -0.0352  -0.0313  -0.0000  -0.0000  -0.0000  -0.0000
    -0.0000  -0.0000  -0.0000  -0.0000  -0.0000  -0.0000  -0.0000  -0.0000
    -0.0000  -0.0000  -0.0000  -0.0000  -0.0000  -0.0000  -0.0000  -0.0000
    -0.0000  -0.0000  -0.0000  -0.0000  -0.0000  -0.0000  -0.0000  -0.0000
    -0.0000  -0.0000  -0.0000

          k = 0.0000 0.0000-0.5000 (  9122 PWs)   bands (ev):

   -78.3790 -78.3790 -78.3788 -78.3788 -73.7324 -73.7324 -73.7322 -73.7322
   -44.4388 -44.4388 -44.4355 -44.4355 -44.3015 -44.3015 -44.3015 -44.3015
   -44.3011 -44.3011 -44.3011 -44.3011 -39.9475 -39.9475 -39.9446 -39.9446
   -39.7733 -39.7733 -39.7733 -39.7733 -39.7728 -39.7728 -39.7728 -39.7728
   -11.6771 -11.6770 -11.6767 -11.6765 -11.6682 -11.6680 -11.6652 -11.6652
   -11.6650 -11.6650 -11.6644 -11.6642 -11.6610 -11.6608 -11.6601 -11.6601
   -11.6599 -11.6599 -11.6425 -11.6424 -11.6377 -11.6377 -11.6375 -11.6375
   -11.6371 -11.6369 -11.6364 -11.6364 -11.6362 -11.6362 -11.6338 -11.6336
   -11.6330 -11.6330 -11.6328 -11.6328 -11.6213 -11.6211 -11.6128 -11.6126
    -6.8139  -6.8138  -6.1856  -6.1853  -6.0643  -6.0642  -5.6259  -5.6254
    -5.6197  -5.6197  -5.6197  -5.6197  -5.4536  -5.4536  -5.4536  -5.4536
    -5.3810  -5.3808  -5.3589  -5.3588  -5.2514  -5.2513  -5.2253  -5.2253
     1.0835   1.0835   1.0836   1.0837   1.3088   1.3089   1.6097   1.6099
     5.5644   5.5644   5.7886   5.7887   5.9563   5.9563   5.9564   5.9564
     6.2528   6.2532   6.2781   6.2782   6.2861   6.2864   6.3960   6.3960
     6.6192   6.6192   6.8650   6.8650   6.8651   6.8651   7.0566   7.0566
     7.0566   7.0566   7.1369   7.1369   7.1798   7.1801   7.2812   7.2815
     7.8362   7.8362   7.8363   7.8363   8.2704   8.2705   8.3574   8.3574
     8.3574   8.3574   8.4481   8.4482   8.5977   8.5977   8.5977   8.5977
     8.7293   8.7294   9.1257   9.1258   9.3055   9.3056   9.4948   9.4948
     9.4949   9.4949   9.5572   9.5572   9.6513   9.6513   9.6516   9.6516
    10.0379  10.0379  10.0379  10.0379  10.2430  10.2430  10.2434  10.2434
    10.4166  10.4166  10.4491  10.4491  10.4492  10.4492  10.5560  10.5561
    10.5561  10.5561  10.8745  10.8745  11.1412  11.1412  11.2270  11.2270
    11.7133  11.7135  11.8559  11.8560  12.9333  12.9333  12.9753  12.9753
    12.9753  12.9753  13.2153  13.2153  13.2153  13.2153  13.4159  13.4161
    13.6347  13.6349  13.6978  13.6979  14.2772  14.2773  14.5777  14.5778
    14.6109  14.6111  14.7789  14.7790  14.8476  14.8476  14.9935  14.9936
    14.9936  14.9937  15.4197  15.4198  15.4760  15.4761  15.4762  15.8812
    15.8818  15.8820  15.8820

     occupation numbers 
     1.0000   1.0000   1.0000   1.0000   1.0000   1.0000   1.0000   1.0000
     1.0000   1.0000   1.0000   1.0000   1.0000   1.0000   1.0000   1.0000
     1.0000   1.0000   1.0000   1.0000   1.0000   1.0000   1.0000   1.0000
     1.0000   1.0000   1.0000   1.0000   1.0000   1.0000   1.0000   1.0000
     1.0000   1.0000   1.0000   1.0000   1.0000   1.0000   1.0000   1.0000
     1.0000   1.0000   1.0000   1.0000   1.0000   1.0000   1.0000   1.0000
     1.0000   1.0000   1.0000   1.0000   1.0000   1.0000   1.0000   1.0000
     1.0000   1.0000   1.0000   1.0000   1.0000   1.0000   1.0000   1.0000
     1.0000   1.0000   1.0000   1.0000   1.0000   1.0000   1.0000   1.0000
     1.0000   1.0000   1.0000   1.0000   1.0000   1.0000   1.0000   1.0000
     1.0000   1.0000   1.0000   1.0000   1.0000   1.0000   1.0000   1.0000
     1.0000   1.0000   1.0000   1.0000   1.0000   1.0000   1.0000   1.0000
     1.0000   1.0000   1.0000   1.0000   1.0000   1.0000   1.0000   1.0000
     1.0000   1.0000   1.0000   1.0000   1.0000   1.0000   1.0000   1.0000
     1.0000   1.0000   1.0000   1.0000   1.0000   1.0000   1.0000   1.0000
     1.0000   1.0000   1.0000   1.0000   1.0000   1.0000   1.0000   1.0000
     1.0000   1.0000   1.0000   1.0000   1.0000   1.0000   1.0000   1.0000
     1.0000   1.0000   1.0000   1.0000   1.0000   1.0000   1.0000   1.0000
     1.0000   1.0000   1.0000   1.0000   1.0000   1.0000   1.0000   1.0000
     1.0000   1.0000   1.0000   1.0000   1.0000   1.0000   1.0000   1.0000
     1.0000   1.0000   1.0000   1.0000   1.0000   1.0000   1.0000   1.0000
     1.0000   1.0000   1.0000   1.0000   1.0000   1.0000   1.0000   1.0000
     1.0000   1.0000   1.0000   1.0000   1.0000   1.0000   1.0000   1.0000
     1.0000   1.0000   1.0000   1.0000   1.0000   1.0000   1.0000   1.0000
     1.0000   1.0000   1.0000   1.0000  -0.0184  -0.0184  -0.0077  -0.0077
    -0.0077  -0.0077  -0.0000  -0.0000  -0.0000  -0.0000  -0.0000  -0.0000
    -0.0000  -0.0000  -0.0000  -0.0000  -0.0000  -0.0000  -0.0000  -0.0000
    -0.0000  -0.0000  -0.0000  -0.0000  -0.0000  -0.0000  -0.0000  -0.0000
    -0.0000  -0.0000  -0.0000  -0.0000  -0.0000  -0.0000  -0.0000  -0.0000
    -0.0000  -0.0000  -0.0000

          k = 0.0000-0.5000-0.5000 (  9220 PWs)   bands (ev):

   -78.3792 -78.3792 -78.3792 -78.3792 -73.7325 -73.7325 -73.7325 -73.7325
   -44.4388 -44.4388 -44.4388 -44.4388 -44.3034 -44.3034 -44.3034 -44.3034
   -44.3022 -44.3022 -44.3022 -44.3022 -39.9475 -39.9475 -39.9475 -39.9475
   -39.7749 -39.7749 -39.7749 -39.7749 -39.7739 -39.7739 -39.7739 -39.7739
   -11.6705 -11.6704 -11.6704 -11.6703 -11.6617 -11.6617 -11.6615 -11.6615
   -11.6572 -11.6571 -11.6570 -11.6569 -11.6519 -11.6518 -11.6517 -11.6516
   -11.6510 -11.6509 -11.6508 -11.6508 -11.6490 -11.6490 -11.6488 -11.6488
   -11.6483 -11.6483 -11.6481 -11.6480 -11.6359 -11.6358 -11.6356 -11.6356
   -11.6292 -11.6292 -11.6290 -11.6290 -11.6259 -11.6258 -11.6257 -11.6256
    -6.5494  -6.5494  -6.5492  -6.5492  -5.9178  -5.9178  -5.9176  -5.9176
    -5.5383  -5.5383  -5.5383  -5.5383  -5.4422  -5.4422  -5.4420  -5.4420
    -5.3146  -5.3146  -5.3146  -5.3146  -5.2682  -5.2682  -5.2681  -5.2681
     1.2006   1.2006   1.2007   1.2008   1.3284   1.3285   1.3286   1.3286
     5.8965   5.8965   5.8965   5.8965   6.0923   6.0923   6.0924   6.0924
     6.2018   6.2018   6.2021   6.2021   6.3410   6.3410   6.3410   6.3410
     6.5934   6.5934   6.5934   6.5934   7.1364   7.1365   7.1365   7.1365
     7.2453   7.2454   7.2454   7.2455   7.2841   7.2841   7.2843   7.2843
     7.3933   7.3933   7.3933   7.3933   7.7906   7.7906   7.7907   7.7907
     8.5382   8.5382   8.5382   8.5382   8.7120   8.7120   8.7121   8.7121
     8.7329   8.7329   8.7329   8.7329   9.4817   9.4817   9.4817   9.4817
     9.6241   9.6242   9.6243   9.6243  10.0020  10.0020  10.0021  10.0021
    10.0370  10.0370  10.0372  10.0373  10.1065  10.1065  10.1066  10.1066
    10.1320  10.1320  10.1320  10.1320  10.4849  10.4849  10.4850  10.4850
    10.5096  10.5096  10.5097  10.5097  11.4915  11.4915  11.4916  11.4916
    12.2871  12.2871  12.2872  12.2872  12.9159  12.9159  12.9160  12.9160
    13.0386  13.0386  13.0386  13.0387  13.1293  13.1293  13.1293  13.1294
    13.8573  13.8573  13.8573  13.8573  14.5944  14.5944  14.5945  14.5948
    14.6095  14.6096  14.6097  14.6097  14.8666  14.8667  14.8667  14.8680
    15.2215  15.2216  15.2216  15.3076  15.3076  15.3077  15.3078  15.8468
    15.8488  15.8488  15.8488

     occupation numbers 
     1.0000   1.0000   1.0000   1.0000   1.0000   1.0000   1.0000   1.0000
     1.0000   1.0000   1.0000   1.0000   1.0000   1.0000   1.0000   1.0000
     1.0000   1.0000   1.0000   1.0000   1.0000   1.0000   1.0000   1.0000
     1.0000   1.0000   1.0000   1.0000   1.0000   1.0000   1.0000   1.0000
     1.0000   1.0000   1.0000   1.0000   1.0000   1.0000   1.0000   1.0000
     1.0000   1.0000   1.0000   1.0000   1.0000   1.0000   1.0000   1.0000
     1.0000   1.0000   1.0000   1.0000   1.0000   1.0000   1.0000   1.0000
     1.0000   1.0000   1.0000   1.0000   1.0000   1.0000   1.0000   1.0000
     1.0000   1.0000   1.0000   1.0000   1.0000   1.0000   1.0000   1.0000
     1.0000   1.0000   1.0000   1.0000   1.0000   1.0000   1.0000   1.0000
     1.0000   1.0000   1.0000   1.0000   1.0000   1.0000   1.0000   1.0000
     1.0000   1.0000   1.0000   1.0000   1.0000   1.0000   1.0000   1.0000
     1.0000   1.0000   1.0000   1.0000   1.0000   1.0000   1.0000   1.0000
     1.0000   1.0000   1.0000   1.0000   1.0000   1.0000   1.0000   1.0000
     1.0000   1.0000   1.0000   1.0000   1.0000   1.0000   1.0000   1.0000
     1.0000   1.0000   1.0000   1.0000   1.0000   1.0000   1.0000   1.0000
     1.0000   1.0000   1.0000   1.0000   1.0000   1.0000   1.0000   1.0000
     1.0000   1.0000   1.0000   1.0000   1.0000   1.0000   1.0000   1.0000
     1.0000   1.0000   1.0000   1.0000   1.0000   1.0000   1.0000   1.0000
     1.0000   1.0000   1.0000   1.0000   1.0000   1.0000   1.0000   1.0000
     1.0000   1.0000   1.0000   1.0000   1.0000   1.0000   1.0000   1.0000
     1.0000   1.0000   1.0000   1.0000   1.0000   1.0000   1.0000   1.0000
     1.0000   1.0000   1.0000   1.0000   1.0000   1.0000   1.0000   1.0000
     1.0000   1.0000   1.0000   1.0000   1.0000   1.0000   1.0000   1.0000
     1.0001   1.0001   1.0001   1.0001  -0.0242  -0.0242  -0.0242  -0.0242
    -0.0013  -0.0013  -0.0013  -0.0013  -0.0000  -0.0000  -0.0000  -0.0000
    -0.0000  -0.0000  -0.0000  -0.0000  -0.0000  -0.0000  -0.0000  -0.0000
    -0.0000  -0.0000  -0.0000  -0.0000  -0.0000  -0.0000  -0.0000  -0.0000
    -0.0000  -0.0000  -0.0000  -0.0000  -0.0000  -0.0000  -0.0000  -0.0000
    -0.0000  -0.0000  -0.0000

          k =-0.5000-0.5000-0.5000 (  9328 PWs)   bands (ev):

   -78.3794 -78.3794 -78.3794 -78.3794 -73.7327 -73.7327 -73.7327 -73.7327
   -44.4401 -44.4401 -44.4401 -44.4401 -44.3052 -44.3052 -44.3051 -44.3051
   -44.3044 -44.3044 -44.3044 -44.3044 -39.9486 -39.9486 -39.9486 -39.9486
   -39.7764 -39.7764 -39.7764 -39.7764 -39.7757 -39.7757 -39.7757 -39.7757
   -11.6586 -11.6585 -11.6585 -11.6584 -11.6558 -11.6557 -11.6557 -11.6556
   -11.6519 -11.6519 -11.6518 -11.6518 -11.6508 -11.6507 -11.6505 -11.6505
   -11.6497 -11.6496 -11.6496 -11.6496 -11.6471 -11.6470 -11.6469 -11.6468
   -11.6434 -11.6434 -11.6433 -11.6433 -11.6423 -11.6423 -11.6423 -11.6423
   -11.6418 -11.6418 -11.6416 -11.6416 -11.6392 -11.6391 -11.6390 -11.6390
    -6.3466  -6.3466  -6.3464  -6.3464  -6.2533  -6.2533  -6.2532  -6.2532
    -5.4580  -5.4580  -5.4576  -5.4576  -5.3500  -5.3500  -5.3500  -5.3500
    -5.3346  -5.3346  -5.3346  -5.3346  -5.2912  -5.2912  -5.2910  -5.2910
     1.2669   1.2670   1.2671   1.2672   1.2714   1.2715   1.2716   1.2716
     6.1151   6.1151   6.1153   6.1153   6.2594   6.2594   6.2595   6.2596
     6.3184   6.3185   6.3185   6.3185   6.4692   6.4692   6.4693   6.4693
     6.5336   6.5336   6.5336   6.5336   6.6581   6.6581   6.6581   6.6581
     6.8448   6.8448   6.8448   6.8448   7.2514   7.2514   7.2515   7.2515
     7.6067   7.6067   7.6067   7.6067   7.6279   7.6279   7.6280   7.6280
     8.2291   8.2291   8.2292   8.2292   8.5121   8.5121   8.5121   8.5121
     9.3750   9.3750   9.3752   9.3752   9.6827   9.6827   9.6828   9.6828
     9.7955   9.7955   9.7955   9.7955   9.8778   9.8778   9.8779   9.8779
    10.1514  10.1514  10.1514  10.1514  10.2070  10.2070  10.2070  10.2070
    10.2258  10.2258  10.2259  10.2260  10.2474  10.2475  10.2477  10.2477
    10.2991  10.2991  10.2991  10.2991  12.2554  12.2554  12.2555  12.2555
    12.3830  12.3830  12.3830  12.3830  12.6024  12.6024  12.6025  12.6025
    12.7825  12.7825  12.7825  12.7825  12.9934  12.9934  12.9934  12.9934
    13.5256  13.5256  13.5257  13.5259  13.6264  13.6264  13.6264  13.6264
    14.8563  14.8614  14.9113  14.9228  15.5437  15.5440  15.5440  15.5448
    15.5911  15.5911  15.5911  15.5927  15.6115  15.6116  15.6116  15.6121
    15.6456  15.6457  15.6458

     occupation numbers 
     1.0000   1.0000   1.0000   1.0000   1.0000   1.0000   1.0000   1.0000
     1.0000   1.0000   1.0000   1.0000   1.0000   1.0000   1.0000   1.0000
     1.0000   1.0000   1.0000   1.0000   1.0000   1.0000   1.0000   1.0000
     1.0000   1.0000   1.0000   1.0000   1.0000   1.0000   1.0000   1.0000
     1.0000   1.0000   1.0000   1.0000   1.0000   1.0000   1.0000   1.0000
     1.0000   1.0000   1.0000   1.0000   1.0000   1.0000   1.0000   1.0000
     1.0000   1.0000   1.0000   1.0000   1.0000   1.0000   1.0000   1.0000
     1.0000   1.0000   1.0000   1.0000   1.0000   1.0000   1.0000   1.0000
     1.0000   1.0000   1.0000   1.0000   1.0000   1.0000   1.0000   1.0000
     1.0000   1.0000   1.0000   1.0000   1.0000   1.0000   1.0000   1.0000
     1.0000   1.0000   1.0000   1.0000   1.0000   1.0000   1.0000   1.0000
     1.0000   1.0000   1.0000   1.0000   1.0000   1.0000   1.0000   1.0000
     1.0000   1.0000   1.0000   1.0000   1.0000   1.0000   1.0000   1.0000
     1.0000   1.0000   1.0000   1.0000   1.0000   1.0000   1.0000   1.0000
     1.0000   1.0000   1.0000   1.0000   1.0000   1.0000   1.0000   1.0000
     1.0000   1.0000   1.0000   1.0000   1.0000   1.0000   1.0000   1.0000
     1.0000   1.0000   1.0000   1.0000   1.0000   1.0000   1.0000   1.0000
     1.0000   1.0000   1.0000   1.0000   1.0000   1.0000   1.0000   1.0000
     1.0000   1.0000   1.0000   1.0000   1.0000   1.0000   1.0000   1.0000
     1.0000   1.0000   1.0000   1.0000   1.0000   1.0000   1.0000   1.0000
     1.0000   1.0000   1.0000   1.0000   1.0000   1.0000   1.0000   1.0000
     1.0000   1.0000   1.0000   1.0000   1.0000   1.0000   1.0000   1.0000
     1.0000   1.0000   1.0000   1.0000   1.0000   1.0000   1.0000   1.0000
     1.0000   1.0000   1.0000   1.0000   1.0000   1.0000   1.0000   1.0000
     1.0023   1.0023   1.0023   1.0023   0.9697   0.9696   0.9695   0.9695
     0.0827   0.0826   0.0826   0.0825  -0.0049  -0.0049  -0.0049  -0.0049
    -0.0000  -0.0000  -0.0000  -0.0000  -0.0000  -0.0000  -0.0000  -0.0000
    -0.0000  -0.0000  -0.0000  -0.0000  -0.0000  -0.0000  -0.0000  -0.0000
    -0.0000  -0.0000  -0.0000  -0.0000  -0.0000  -0.0000  -0.0000  -0.0000
    -0.0000  -0.0000  -0.0000

          k =-0.5000 0.0000 0.0000 (  9122 PWs)   bands (ev):

   -78.3789 -78.3789 -78.3789 -78.3789 -73.7323 -73.7323 -73.7323 -73.7323
   -44.4374 -44.4374 -44.4360 -44.4360 -44.3029 -44.3029 -44.3019 -44.3019
   -44.3007 -44.3007 -44.3006 -44.3006 -39.9457 -39.9457 -39.9456 -39.9456
   -39.7744 -39.7744 -39.7736 -39.7736 -39.7725 -39.7725 -39.7725 -39.7725
   -11.6858 -11.6857 -11.6792 -11.6791 -11.6693 -11.6692 -11.6641 -11.6639
   -11.6624 -11.6624 -11.6611 -11.6610 -11.6601 -11.6600 -11.6554 -11.6554
   -11.6538 -11.6538 -11.6436 -11.6435 -11.6430 -11.6429 -11.6377 -11.6376
   -11.6366 -11.6365 -11.6360 -11.6360 -11.6358 -11.6357 -11.6306 -11.6305
   -11.6291 -11.6291 -11.6284 -11.6283 -11.6283 -11.6282 -11.6182 -11.6182
    -6.8213  -6.8212  -6.1264  -6.1264  -6.0970  -6.0970  -5.7288  -5.7288
    -5.6197  -5.6197  -5.5280  -5.5280  -5.4535  -5.4535  -5.4473  -5.4473
    -5.4039  -5.4039  -5.3239  -5.3239  -5.2918  -5.2918  -5.2102  -5.2102
     1.0815   1.0815   1.0851   1.0851   1.3066   1.3066   1.6119   1.6120
     5.4012   5.4012   5.7584   5.7584   5.9502   5.9503   5.9938   5.9938
     6.0025   6.0026   6.3791   6.3791   6.5020   6.5020   6.5307   6.5308
     6.7653   6.7653   6.7799   6.7799   6.7995   6.7995   7.0076   7.0076
     7.2413   7.2413   7.3150   7.3150   7.3906   7.3906   7.4173   7.4174
     7.5436   7.5436   7.7617   7.7618   7.8169   7.8169   8.2002   8.2002
     8.4025   8.4025   8.5507   8.5507   8.6202   8.6202   8.6354   8.6355
     8.9187   8.9188   9.1724   9.1724   9.2724   9.2724   9.3321   9.3321
     9.4762   9.4762   9.5503   9.5503   9.9343   9.9343   9.9654   9.9654
    10.0009  10.0009  10.0146  10.0146  10.0998  10.0999  10.1525  10.1525
    10.2711  10.2711  10.2940  10.2940  10.3184  10.3184  10.4572  10.4572
    10.5186  10.5186  10.5660  10.5660  10.8563  10.8563  11.5689  11.5689
    11.8305  11.8305  12.8306  12.8306  12.8477  12.8477  13.0310  13.0311
    13.0816  13.0816  13.2939  13.2939  13.3201  13.3201  13.3333  13.3333
    13.5286  13.5287  13.6814  13.6815  13.7946  13.7946  14.2857  14.2857
    14.5884  14.5885  14.5889  14.5890  14.9883  14.9883  14.9920  14.9921
    15.1404  15.1409  15.4237  15.4879  15.4884  15.4884  15.4885  15.8805
    15.8806  15.8870  15.8871

     occupation numbers 
     1.0000   1.0000   1.0000   1.0000   1.0000   1.0000   1.0000   1.0000
     1.0000   1.0000   1.0000   1.0000   1.0000   1.0000   1.0000   1.0000
     1.0000   1.0000   1.0000   1.0000   1.0000   1.0000   1.0000   1.0000
     1.0000   1.0000   1.0000   1.0000   1.0000   1.0000   1.0000   1.0000
     1.0000   1.0000   1.0000   1.0000   1.0000   1.0000   1.0000   1.0000
     1.0000   1.0000   1.0000   1.0000   1.0000   1.0000   1.0000   1.0000
     1.0000   1.0000   1.0000   1.0000   1.0000   1.0000   1.0000   1.0000
     1.0000   1.0000   1.0000   1.0000   1.0000   1.0000   1.0000   1.0000
     1.0000   1.0000   1.0000   1.0000   1.0000   1.0000   1.0000   1.0000
     1.0000   1.0000   1.0000   1.0000   1.0000   1.0000   1.0000   1.0000
     1.0000   1.0000   1.0000   1.0000   1.0000   1.0000   1.0000   1.0000
     1.0000   1.0000   1.0000   1.0000   1.0000   1.0000   1.0000   1.0000
     1.0000   1.0000   1.0000   1.0000   1.0000   1.0000   1.0000   1.0000
     1.0000   1.0000   1.0000   1.0000   1.0000   1.0000   1.0000   1.0000
     1.0000   1.0000   1.0000   1.0000   1.0000   1.0000   1.0000   1.0000
     1.0000   1.0000   1.0000   1.0000   1.0000   1.0000   1.0000   1.0000
     1.0000   1.0000   1.0000   1.0000   1.0000   1.0000   1.0000   1.0000
     1.0000   1.0000   1.0000   1.0000   1.0000   1.0000   1.0000   1.0000
     1.0000   1.0000   1.0000   1.0000   1.0000   1.0000   1.0000   1.0000
     1.0000   1.0000   1.0000   1.0000   1.0000   1.0000   1.0000   1.0000
     1.0000   1.0000   1.0000   1.0000   1.0000   1.0000   1.0000   1.0000
     1.0000   1.0000   1.0000   1.0000   1.0000   1.0000   1.0000   1.0000
     1.0000   1.0000   1.0000   1.0000   1.0000   1.0000   1.0000   1.0000
     1.0000   1.0000   1.0000   1.0000   1.0000   1.0000   1.0000   1.0000
     1.0000   1.0000  -0.0189  -0.0189  -0.0312  -0.0312  -0.0016  -0.0016
    -0.0003  -0.0003  -0.0000  -0.0000  -0.0000  -0.0000  -0.0000  -0.0000
    -0.0000  -0.0000  -0.0000  -0.0000  -0.0000  -0.0000  -0.0000  -0.0000
    -0.0000  -0.0000  -0.0000  -0.0000  -0.0000  -0.0000  -0.0000  -0.0000
    -0.0000  -0.0000  -0.0000  -0.0000  -0.0000  -0.0000  -0.0000  -0.0000
    -0.0000  -0.0000  -0.0000

          k =-0.5000 0.5000 0.0000 (  9220 PWs)   bands (ev):

   -78.3794 -78.3794 -78.3789 -78.3789 -73.7327 -73.7327 -73.7323 -73.7323
   -44.4391 -44.4391 -44.4361 -44.4361 -44.3057 -44.3057 -44.3036 -44.3036
   -44.3028 -44.3027 -44.3018 -44.3018 -39.9473 -39.9473 -39.9457 -39.9457
   -39.7769 -39.7769 -39.7750 -39.7750 -39.7743 -39.7743 -39.7734 -39.7733
   -11.6769 -11.6769 -11.6755 -11.6754 -11.6638 -11.6637 -11.6620 -11.6620
   -11.6604 -11.6604 -11.6587 -11.6587 -11.6488 -11.6487 -11.6487 -11.6485
   -11.6457 -11.6457 -11.6428 -11.6428 -11.6422 -11.6421 -11.6421 -11.6419
   -11.6419 -11.6419 -11.6410 -11.6410 -11.6376 -11.6376 -11.6376 -11.6375
   -11.6346 -11.6346 -11.6343 -11.6343 -11.6342 -11.6342 -11.6304 -11.6303
    -6.6036  -6.6036  -6.4971  -6.4971  -5.8940  -5.8940  -5.8777  -5.8777
    -5.7038  -5.7038  -5.4755  -5.4755  -5.4036  -5.4036  -5.3887  -5.3887
    -5.3740  -5.3740  -5.3107  -5.3107  -5.2948  -5.2948  -5.2365  -5.2365
     1.1886   1.1886   1.2087   1.2087   1.3253   1.3253   1.3355   1.3356
     5.4493   5.4493   5.8413   5.8413   6.1641   6.1641   6.1649   6.1649
     6.2747   6.2747   6.4483   6.4483   6.4806   6.4806   6.5834   6.5834
     6.7936   6.7936   6.8522   6.8522   6.8545   6.8545   6.8712   6.8712
     6.9228   6.9229   7.1060   7.1060   7.1958   7.1958   7.2603   7.2603
     7.6178   7.6178   7.6480   7.6480   7.7347   7.7347   8.1744   8.1744
     8.2557   8.2557   8.2832   8.2832   8.3346   8.3346   8.7288   8.7288
     9.0671   9.0671   9.2781   9.2781   9.3934   9.3934   9.4496   9.4496
     9.5489   9.5489   9.6048   9.6049   9.8594   9.8594   9.8657   9.8657
     9.9770   9.9770  10.0028  10.0028  10.1110  10.1110  10.1194  10.1194
    10.1488  10.1488  10.1916  10.1916  10.2652  10.2652  10.4588  10.4588
    10.4643  10.4643  10.5989  10.5989  10.7364  10.7364  12.3496  12.3496
    12.4263  12.4263  12.7582  12.7582  12.7860  12.7860  12.8593  12.8593
    13.1873  13.1874  13.1932  13.1933  13.2207  13.2207  13.2752  13.2754
    13.5941  13.5942  13.8491  13.8491  13.9106  13.9107  14.5020  14.5020
    14.5329  14.5329  14.6997  14.7001  14.7158  14.7170  14.9204  15.2145
    15.2145  15.2211  15.2211  15.2566  15.2607  15.3418  15.3418  15.7976
    15.7976  15.8930  15.8930

     occupation numbers 
     1.0000   1.0000   1.0000   1.0000   1.0000   1.0000   1.0000   1.0000
     1.0000   1.0000   1.0000   1.0000   1.0000   1.0000   1.0000   1.0000
     1.0000   1.0000   1.0000   1.0000   1.0000   1.0000   1.0000   1.0000
     1.0000   1.0000   1.0000   1.0000   1.0000   1.0000   1.0000   1.0000
     1.0000   1.0000   1.0000   1.0000   1.0000   1.0000   1.0000   1.0000
     1.0000   1.0000   1.0000   1.0000   1.0000   1.0000   1.0000   1.0000
     1.0000   1.0000   1.0000   1.0000   1.0000   1.0000   1.0000   1.0000
     1.0000   1.0000   1.0000   1.0000   1.0000   1.0000   1.0000   1.0000
     1.0000   1.0000   1.0000   1.0000   1.0000   1.0000   1.0000   1.0000
     1.0000   1.0000   1.0000   1.0000   1.0000   1.0000   1.0000   1.0000
     1.0000   1.0000   1.0000   1.0000   1.0000   1.0000   1.0000   1.0000
     1.0000   1.0000   1.0000   1.0000   1.0000   1.0000   1.0000   1.0000
     1.0000   1.0000   1.0000   1.0000   1.0000   1.0000   1.0000   1.0000
     1.0000   1.0000   1.0000   1.0000   1.0000   1.0000   1.0000   1.0000
     1.0000   1.0000   1.0000   1.0000   1.0000   1.0000   1.0000   1.0000
     1.0000   1.0000   1.0000   1.0000   1.0000   1.0000   1.0000   1.0000
     1.0000   1.0000   1.0000   1.0000   1.0000   1.0000   1.0000   1.0000
     1.0000   1.0000   1.0000   1.0000   1.0000   1.0000   1.0000   1.0000
     1.0000   1.0000   1.0000   1.0000   1.0000   1.0000   1.0000   1.0000
     1.0000   1.0000   1.0000   1.0000   1.0000   1.0000   1.0000   1.0000
     1.0000   1.0000   1.0000   1.0000   1.0000   1.0000   1.0000   1.0000
     1.0000   1.0000   1.0000   1.0000   1.0000   1.0000   1.0000   1.0000
     1.0000   1.0000   1.0000   1.0000   1.0000   1.0000   1.0000   1.0000
     1.0000   1.0000   1.0000   1.0000   1.0000   1.0000   1.0008   1.0008
     1.0074   1.0074   0.1796   0.1796   0.0712   0.0712  -0.0347  -0.0347
    -0.0000  -0.0000  -0.0000  -0.0000  -0.0000  -0.0000  -0.0000  -0.0000
    -0.0000  -0.0000  -0.0000  -0.0000  -0.0000  -0.0000  -0.0000  -0.0000
    -0.0000  -0.0000  -0.0000  -0.0000  -0.0000  -0.0000  -0.0000  -0.0000
    -0.0000  -0.0000  -0.0000  -0.0000  -0.0000  -0.0000  -0.0000  -0.0000
    -0.0000  -0.0000  -0.0000

     the Fermi energy is    12.7016 ev

!    total energy              =   -4259.26625621 Ry
     estimated scf accuracy    <       0.00000519 Ry
     smearing contrib. (-TS)   =       0.00315830 Ry
     internal energy E=F+TS    =   -4259.26941451 Ry

     The total energy is F=E-TS. E is the sum of the following terms:
     one-electron contribution =   -1695.09343165 Ry
     hartree contribution      =    1098.40596410 Ry
     xc contribution           =    -924.97817245 Ry
     ewald contribution        =   -2737.60377451 Ry

     total magnetization       =    -0.00 Bohr mag/cell
     absolute magnetization    =    32.24 Bohr mag/cell

     convergence has been achieved in  13 iterations

     Writing output data file /home/aldair1809/Documentos/QE/4BFO/temp/bifeo3.save/

     init_run     :     96.30s CPU     97.93s WALL (       1 calls)
     electrons    :   4528.78s CPU   4619.29s WALL (       1 calls)

     Called by init_run:
     wfcinit      :     92.41s CPU     93.23s WALL (       1 calls)
     wfcinit:atom :      0.11s CPU      0.11s WALL (      12 calls)
     wfcinit:wfcr :     91.40s CPU     92.19s WALL (      12 calls)
     potinit      :      0.40s CPU      0.45s WALL (       1 calls)
     hinit0       :      0.64s CPU      0.66s WALL (       1 calls)

     Called by electrons:
     c_bands      :   4149.86s CPU   4199.39s WALL (      13 calls)
     sum_band     :    337.96s CPU    363.53s WALL (      13 calls)
     v_of_rho     :      4.43s CPU      5.52s WALL (      14 calls)
     v_h          :      0.17s CPU      0.21s WALL (      14 calls)
     v_xc         :      4.25s CPU      5.31s WALL (      14 calls)
     newd         :     37.82s CPU     47.47s WALL (      14 calls)
     mix_rho      :      0.84s CPU      1.38s WALL (      13 calls)

     Called by c_bands:
     init_us_2    :      4.66s CPU      5.44s WALL (     324 calls)
     ccgdiagg     :   3259.45s CPU   3296.00s WALL (     156 calls)
     wfcrot       :    977.21s CPU    986.97s WALL (     156 calls)

     Called by sum_band:
     sum_band:wei :      0.11s CPU      0.18s WALL (      13 calls)
     sum_band:loo :    272.98s CPU    277.05s WALL (      13 calls)
     sum_band:buf :      0.76s CPU      0.77s WALL (     156 calls)
     sum_band:ini :      2.23s CPU      2.25s WALL (     156 calls)
     sum_band:cal :    212.96s CPU    214.13s WALL (     156 calls)
     sum_band:bec :      1.27s CPU      1.28s WALL (     156 calls)
     addusdens    :     62.81s CPU     81.18s WALL (      13 calls)
     addusd:skk   :      0.20s CPU      0.22s WALL (      52 calls)
     addusd:dgemm :     42.58s CPU     58.72s WALL (     104 calls)
     addusd:qvan2 :     19.60s CPU     19.68s WALL (     104 calls)

     Called by *cgdiagg:
     h_psi        :   1832.42s CPU   1862.04s WALL (   88303 calls)
     s_psi        :   1238.32s CPU   1244.26s WALL (  176450 calls)

     Called by h_psi:
     h_psi:calbec :    738.94s CPU    747.67s WALL (   88303 calls)
     vloc_psi     :    362.04s CPU    379.97s WALL (   88303 calls)
     add_vuspsi   :    728.42s CPU    731.59s WALL (   88303 calls)
     hs_1psi      :   1823.90s CPU   1849.53s WALL (   88147 calls)
     s_1psi       :   1041.10s CPU   1048.32s WALL (   88147 calls)

     General routines
     calbec       :   1477.03s CPU   1492.07s WALL (  176606 calls)
     fft          :      3.31s CPU      4.60s WALL (     344 calls)
     ffts         :      0.13s CPU      0.14s WALL (      54 calls)
     fftw         :    375.72s CPU    395.49s WALL (  287162 calls)
     interpolate  :      0.39s CPU      0.43s WALL (      28 calls)

     Parallel routines
     fft_scatt_xy :     40.33s CPU     42.96s WALL (  287560 calls)
     fft_scatt_yz :     77.37s CPU     84.47s WALL (  287560 calls)

     PWSCF        :      1h17m CPU      1h18m WALL


   This run was terminated on:  17:47:18  24Oct2024            

=------------------------------------------------------------------------------=
   JOB DONE.
=------------------------------------------------------------------------------=
