
     Program PWSCF v.6.7MaX starts on 29Sep2024 at 15: 6:57 

     This program is part of the open-source Quantum ESPRESSO suite
     for quantum simulation of materials; please cite
         "P. Giannozzi et al., J. Phys.:Condens. Matter 21 395502 (2009);
         "P. Giannozzi et al., J. Phys.:Condens. Matter 29 465901 (2017);
          URL http://www.quantum-espresso.org", 
     in publications or presentations arising from this work. More details at
     http://www.quantum-espresso.org/quote

     Parallel version (MPI), running on     4 processors

     MPI processes distributed on     1 nodes
     R & G space division:  proc/nbgrp/npool/nimage =       4
     Waiting for input...
     Reading input from standard input

     Current dimensions of program PWSCF are:
     Max number of different atomic species (ntypx) = 10
     Max number of k-points (npk) =  40000
     Max angular momentum in pseudopotentials (lmaxx) =  3
     Message from routine iosys:
     wrong startingpot: use default (1)

     Subspace diagonalization in iterative solution of the eigenvalue problem:
     one sub-group per band group will be used
     scalapack distributed-memory algorithm (size of sub-group:  2*  2 procs)

     Message from routine setup:
     using ibrav=0 with symmetry is DISCOURAGED, use correct ibrav instead

     Parallelization info
     --------------------
     sticks:   dense  smooth     PW     G-vecs:    dense   smooth      PW
     Min         498     498    136                44865    44865    6352
     Max         499     499    137                44866    44866    6357
     Sum        1993    1993    547               179463   179463   25421



     bravais-lattice index     =            0
     lattice parameter (alat)  =      10.5468  a.u.
     unit-cell volume          =    2535.5110 (a.u.)^3
     number of atoms/cell      =           30
     number of atomic types    =            4
     number of electrons       =       294.00
     number of Kohn-Sham states=          200
     kinetic-energy cutoff     =      65.0000  Ry
     charge density cutoff     =     260.0000  Ry
     scf convergence threshold =      1.0E-03
     mixing beta               =       0.2000
     number of iterations used =            8  plain     mixing
     Exchange-correlation=  SLA  PW   PBX  PBC
                           (   1   4   3   4   0   0   0)

     celldm(1)=  10.546849  celldm(2)=   0.000000  celldm(3)=   0.000000
     celldm(4)=   0.000000  celldm(5)=   0.000000  celldm(6)=   0.000000

     crystal axes: (cart. coord. in units of alat)
               a(1) = (   1.000000  -0.000000  -0.000000 )  
               a(2) = (  -0.500000   0.866025  -0.000000 )  
               a(3) = (   0.000000  -0.000000   2.495552 )  

     reciprocal axes: (cart. coord. in units 2 pi/alat)
               b(1) = (  1.000000  0.577350  0.000000 )  
               b(2) = (  0.000000  1.154701  0.000000 )  
               b(3) = (  0.000000  0.000000  0.400713 )  


     PseudoPot. # 1 for O  read from file:
     /home/aldair1809/Programas/QE/q-e-qe-7.3/pseudo/o_pbe_v1.2.uspp.F.UPF
     MD5 check sum: 734c27235a0248c51dbae37a1fbe46ec
     Pseudo is Ultrasoft + core correction, Zval =  6.0
     Generated by new atomic code, or converted to UPF format
     Using radial grid of  737 points,  5 beta functions with: 
                l(1) =   0
                l(2) =   0
                l(3) =   1
                l(4) =   1
                l(5) =   2
     Q(r) pseudized with  8 coefficients,  rinner =    0.900   0.900   0.900
                                                       0.900   0.900

     PseudoPot. # 2 for Bi read from file:
     /home/aldair1809/Programas/QE/q-e-qe-7.3/pseudo/bi_pbe_v1.uspp.F.UPF
     MD5 check sum: cceb9f28ec65b6d7ff33140f5b0b1758
     Pseudo is Ultrasoft + core correction, Zval = 15.0
     Generated by new atomic code, or converted to UPF format
     Using radial grid of  899 points,  6 beta functions with: 
                l(1) =   0
                l(2) =   0
                l(3) =   1
                l(4) =   1
                l(5) =   2
                l(6) =   2
     Q(r) pseudized with  6 coefficients,  rinner =    1.000   1.000   1.000
                                                       1.000   1.000

     PseudoPot. # 3 for Fe read from file:
     /home/aldair1809/Programas/QE/q-e-qe-7.3/pseudo/fe_pbe_v1.5.uspp.F.UPF
     MD5 check sum: a130daea23fe5165f5d574ae7f82ed95
     Pseudo is Ultrasoft + core correction, Zval = 16.0
     Generated by new atomic code, or converted to UPF format
     Using radial grid of  861 points,  6 beta functions with: 
                l(1) =   0
                l(2) =   0
                l(3) =   1
                l(4) =   1
                l(5) =   2
                l(6) =   2
     Q(r) pseudized with  8 coefficients,  rinner =    1.000   1.000   1.000
                                                       1.000   1.000

     PseudoPot. # 4 for Fe read from file:
     /home/aldair1809/Programas/QE/q-e-qe-7.3/pseudo/fe_pbe_v1.5.uspp.F.UPF
     MD5 check sum: a130daea23fe5165f5d574ae7f82ed95
     Pseudo is Ultrasoft + core correction, Zval = 16.0
     Generated by new atomic code, or converted to UPF format
     Using radial grid of  861 points,  6 beta functions with: 
                l(1) =   0
                l(2) =   0
                l(3) =   1
                l(4) =   1
                l(5) =   2
                l(6) =   2
     Q(r) pseudized with  8 coefficients,  rinner =    1.000   1.000   1.000
                                                       1.000   1.000

     atomic species   valence    mass     pseudopotential
        O              6.00    15.99940     O ( 1.00)
        Bi            15.00   208.98040     Bi( 1.00)
        Fe1           16.00    55.84500     Fe( 1.00)
        Fe2           16.00    55.84500     Fe( 1.00)

     Starting magnetic structure 
     atomic species   magnetization
        O            0.000
        Bi           0.000
        Fe1         -0.800
        Fe2          0.800

      3 Sym. Ops. (no inversion) found


                                    s                        frac. trans.

      isym =  1     identity                                     

 cryst.   s( 1) = (     1          0          0      )
                  (     0          1          0      )
                  (     0          0          1      )

 cart.    s( 1) = (  1.0000000 -0.0000000  0.0000000 )
                  (  0.0000000  1.0000000  0.0000000 )
                  (  0.0000000  0.0000000  1.0000000 )


      isym =  2     120 deg rotation - cryst. axis [0,0,1]       

 cryst.   s( 2) = (     0          1          0      )
                  (    -1         -1          0      )
                  (     0          0          1      )

 cart.    s( 2) = ( -0.5000000 -0.8660254  0.0000000 )
                  (  0.8660254 -0.5000000  0.0000000 )
                  (  0.0000000  0.0000000  1.0000000 )


      isym =  3     120 deg rotation - cryst. axis [0,0,-1]      

 cryst.   s( 3) = (    -1         -1          0      )
                  (     1          0          0      )
                  (     0          0          1      )

 cart.    s( 3) = ( -0.5000000  0.8660254  0.0000000 )
                  ( -0.8660254 -0.5000000  0.0000000 )
                  (  0.0000000  0.0000000  1.0000000 )


   Cartesian axes

     site n.     atom                  positions (alat units)
         1           Fe1 tau(   1) = (   0.0000000   0.0000000   1.9384582  )
         2           Fe1 tau(   2) = (  -0.0000005   0.5773506   2.3615556  )
         3           Fe1 tau(   3) = (   0.5000005   0.2886748   1.5200787  )
         4           Fe2 tau(   4) = (   0.5000005   0.2886748   0.2722626  )
         5           Fe2 tau(   5) = (   0.0000000   0.0000000   0.6907071  )
         6           Fe2 tau(   6) = (  -0.0000005   0.5773506   1.1137452  )
         7           Bi  tau(   7) = (   0.5000005   0.2886748   2.0843143  )
         8           Bi  tau(   8) = (  -0.0000005   0.5773506   1.6713980  )
         9           Bi  tau(   9) = (  -0.0000005   0.5773506   0.4235448  )
        10           Bi  tau(  10) = (   0.0000000   0.0000000   0.0002821  )
        11           Bi  tau(  11) = (   0.0000000   0.0000000   1.2481025  )
        12           Bi  tau(  12) = (   0.5000005   0.2886748   0.8364865  )
        13           O   tau(  13) = (  -0.3105904   0.6551932   2.2011299  )
        14           O   tau(  14) = (   0.0878817   0.2694488   2.2011299  )
        15           O   tau(  15) = (   0.2227102   0.8074080   2.2011299  )
        16           O   tau(  16) = (   0.4087504   0.5589755   1.7846473  )
        17           O   tau(  17) = (   0.3115373   0.0745013   1.7846473  )
        18           O   tau(  18) = (   0.7797108   0.2325494   1.7846473  )
        19           O   tau(  19) = (   0.6884743   0.0745026   0.5368244  )
        20           O   tau(  20) = (   0.5912412   0.5589858   0.5368244  )
        21           O   tau(  21) = (   0.2202830   0.2325379   0.5368244  )
        22           O   tau(  22) = (  -0.0823010   0.8482993   0.1166193  )
        23           O   tau(  23) = (  -0.1934983   0.3706010   0.1166193  )
        24           O   tau(  24) = (   0.2757993   0.5131505   0.1166193  )
        25           O   tau(  25) = (   0.1934855   0.3705936   1.3644430  )
        26           O   tau(  26) = (   0.0823138   0.8482919   1.3644430  )
        27           O   tau(  27) = (  -0.2757993   0.5131653   1.3644430  )
        28           O   tau(  28) = (  -0.0878870   0.2694458   0.9533686  )
        29           O   tau(  29) = (   0.3105971   0.6551893   0.9533686  )
        30           O   tau(  30) = (  -0.2227086   0.8074149   0.9533686  )

   Crystallographic axes

     site n.     atom                  positions (cryst. coord.)
         1           Fe1 tau(   1) = (  0.0000000  0.0000000  0.7767652  )
         2           Fe1 tau(   2) = (  0.3333330  0.6666670  0.9463058  )
         3           Fe1 tau(   3) = (  0.6666670  0.3333330  0.6091152  )
         4           Fe2 tau(   4) = (  0.6666670  0.3333330  0.1090991  )
         5           Fe2 tau(   5) = (  0.0000000  0.0000000  0.2767753  )
         6           Fe2 tau(   6) = (  0.3333330  0.6666670  0.4462921  )
         7           Bi  tau(   7) = (  0.6666670  0.3333330  0.8352117  )
         8           Bi  tau(   8) = (  0.3333330  0.6666670  0.6697508  )
         9           Bi  tau(   9) = (  0.3333330  0.6666670  0.1697199  )
        10           Bi  tau(  10) = (  0.0000000  0.0000000  0.0001130  )
        11           Bi  tau(  11) = (  0.0000000  0.0000000  0.5001308  )
        12           Bi  tau(  12) = (  0.6666670  0.3333330  0.3351910  )
        13           O   tau(  13) = (  0.0676856  0.7565520  0.8820212  )
        14           O   tau(  14) = (  0.2434480  0.3111326  0.8820212  )
        15           O   tau(  15) = (  0.6888674  0.9323144  0.8820212  )
        16           O   tau(  16) = (  0.7314750  0.6454493  0.7151312  )
        17           O   tau(  17) = (  0.3545507  0.0860267  0.7151312  )
        18           O   tau(  18) = (  0.9139733  0.2685250  0.7151312  )
        19           O   tau(  19) = (  0.7314884  0.0860282  0.2151125  )
        20           O   tau(  20) = (  0.9139718  0.6454612  0.2151125  )
        21           O   tau(  21) = (  0.3545388  0.2685116  0.2151125  )
        22           O   tau(  22) = (  0.4074649  0.9795317  0.0467309  )
        23           O   tau(  23) = (  0.0204683  0.4279331  0.0467309  )
        24           O   tau(  24) = (  0.5720669  0.5925351  0.0467309  )
        25           O   tau(  25) = (  0.4074478  0.4279246  0.5467499  )
        26           O   tau(  26) = (  0.5720754  0.9795232  0.5467499  )
        27           O   tau(  27) = (  0.0204768  0.5925522  0.5467499  )
        28           O   tau(  28) = (  0.0676775  0.3111292  0.3820271  )
        29           O   tau(  29) = (  0.6888708  0.7565474  0.3820271  )
        30           O   tau(  30) = (  0.2434526  0.9323225  0.3820271  )

     number of k points=     2  Gaussian smearing, width (Ry)=  0.0100
                       cart. coord. in units 2pi/alat
        k(    1) = (   0.0000000   0.0000000   0.0000000), wk =   0.2500000
        k(    2) = (   0.0000000  -0.5773503   0.0000000), wk =   0.7500000

                       cryst. coord.
        k(    1) = (   0.0000000   0.0000000   0.0000000), wk =   0.2500000
        k(    2) = (   0.0000000  -0.5000000   0.0000000), wk =   0.7500000

     Dense  grid:   179463 G-vectors     FFT dimensions: (  60,  60, 135)

     Dynamical RAM for                 wfc:      17.12 MB

     Dynamical RAM for     wfc (w. buffer):      85.59 MB

     Dynamical RAM for           str. fact:       2.74 MB

     Dynamical RAM for           local pot:       0.00 MB

     Dynamical RAM for          nlocal pot:      38.51 MB

     Dynamical RAM for                qrad:       5.18 MB

     Dynamical RAM for          rho,v,vnew:       9.71 MB

     Dynamical RAM for               rhoin:       3.24 MB

     Dynamical RAM for            rho*nmix:      21.91 MB

     Dynamical RAM for           G-vectors:       2.91 MB

     Dynamical RAM for          h,s,v(r/c):       0.46 MB

     Dynamical RAM for          <psi|beta>:       1.37 MB

     Dynamical RAM for      wfcinit/wfcrot:      35.87 MB

     Dynamical RAM for           addusdens:     140.34 MB

     Estimated static dynamical RAM per process >     178.81 MB

     Estimated max dynamical RAM per process >     319.15 MB

     Estimated total dynamical RAM >       1.25 GB

     Check: negative core charge=   -0.000018
     Generating pointlists ...
     new r_m :   0.1458 (alat units)  1.5374 (a.u.) for type    1
     new r_m :   0.1687 (alat units)  1.7788 (a.u.) for type    2
     new r_m :   0.1458 (alat units)  1.5374 (a.u.) for type    3
     new r_m :   0.1458 (alat units)  1.5374 (a.u.) for type    4

     Initial potential from superposition of free atoms

     starting charge  281.99969, renormalised to  294.00000

     negative rho (up, down):  1.271E-01 1.271E-01
     Starting wfcs are  204 randomized atomic wfcs

     total cpu time spent up to now is       46.3 secs

     Self-consistent Calculation

     iteration #  1     ecut=    65.00 Ry     beta= 0.20
     CG style diagonalization
     ethr =  1.00E-02,  avg # of iterations =  2.6

     negative rho (up, down):  1.230E-01 1.230E-01

     total cpu time spent up to now is      201.4 secs

     total energy              =   -3189.36634844 Ry
     estimated scf accuracy    <      22.83410326 Ry

     total magnetization       =    -0.00 Bohr mag/cell
     absolute magnetization    =    30.53 Bohr mag/cell

     iteration #  2     ecut=    65.00 Ry     beta= 0.20
     CG style diagonalization
     ethr =  7.77E-03,  avg # of iterations =  3.0

     negative rho (up, down):  1.189E-01 1.190E-01

     total cpu time spent up to now is      343.7 secs

     total energy              =   -3192.25269384 Ry
     estimated scf accuracy    <       9.33673410 Ry

     total magnetization       =     0.00 Bohr mag/cell
     absolute magnetization    =    29.72 Bohr mag/cell

     iteration #  3     ecut=    65.00 Ry     beta= 0.20
     CG style diagonalization
     ethr =  3.18E-03,  avg # of iterations =  3.1

     negative rho (up, down):  1.200E-01 1.200E-01

     total cpu time spent up to now is      492.0 secs

     total energy              =   -3193.76441737 Ry
     estimated scf accuracy    <       4.39512048 Ry

     total magnetization       =     0.00 Bohr mag/cell
     absolute magnetization    =    28.26 Bohr mag/cell

     iteration #  4     ecut=    65.00 Ry     beta= 0.20
     CG style diagonalization
     ethr =  1.49E-03,  avg # of iterations =  3.2

     negative rho (up, down):  1.181E-01 1.180E-01

     total cpu time spent up to now is      666.7 secs

     total energy              =   -3194.83607038 Ry
     estimated scf accuracy    <       2.32530809 Ry

     total magnetization       =     0.00 Bohr mag/cell
     absolute magnetization    =    29.08 Bohr mag/cell

     iteration #  5     ecut=    65.00 Ry     beta= 0.20
     CG style diagonalization
     ethr =  7.91E-04,  avg # of iterations =  3.1

     negative rho (up, down):  1.181E-01 1.181E-01

     total cpu time spent up to now is      846.5 secs

     total energy              =   -3195.13017092 Ry
     estimated scf accuracy    <       0.15186645 Ry

     total magnetization       =    -0.00 Bohr mag/cell
     absolute magnetization    =    27.65 Bohr mag/cell

     iteration #  6     ecut=    65.00 Ry     beta= 0.20
     CG style diagonalization
     c_bands:  1 eigenvalues not converged
     c_bands:  3 eigenvalues not converged
     ethr =  5.17E-05,  avg # of iterations =  3.9

     negative rho (up, down):  1.185E-01 1.184E-01

     total cpu time spent up to now is     1085.1 secs

     total energy              =   -3195.03503329 Ry
     estimated scf accuracy    <       1.09093693 Ry

     total magnetization       =     0.00 Bohr mag/cell
     absolute magnetization    =    26.12 Bohr mag/cell

     iteration #  7     ecut=    65.00 Ry     beta= 0.20
     CG style diagonalization
     ethr =  5.17E-05,  avg # of iterations =  3.5

     negative rho (up, down):  1.191E-01 1.190E-01

     total cpu time spent up to now is     1292.1 secs

     total energy              =   -3195.12168459 Ry
     estimated scf accuracy    <       0.06761037 Ry

     total magnetization       =     0.00 Bohr mag/cell
     absolute magnetization    =    27.39 Bohr mag/cell

     iteration #  8     ecut=    65.00 Ry     beta= 0.20
     CG style diagonalization
     ethr =  2.30E-05,  avg # of iterations =  3.4

     negative rho (up, down):  1.192E-01 1.191E-01

     total cpu time spent up to now is     1500.1 secs

     total energy              =   -3195.12104760 Ry
     estimated scf accuracy    <       0.12836118 Ry

     total magnetization       =    -0.00 Bohr mag/cell
     absolute magnetization    =    27.71 Bohr mag/cell

     iteration #  9     ecut=    65.00 Ry     beta= 0.20
     CG style diagonalization
     c_bands:  1 eigenvalues not converged
     ethr =  2.30E-05,  avg # of iterations =  3.1

     negative rho (up, down):  1.193E-01 1.193E-01

     total cpu time spent up to now is     1691.7 secs

     total energy              =   -3195.11857070 Ry
     estimated scf accuracy    <       0.03566313 Ry

     total magnetization       =     0.00 Bohr mag/cell
     absolute magnetization    =    27.58 Bohr mag/cell

     iteration # 10     ecut=    65.00 Ry     beta= 0.20
     CG style diagonalization
     c_bands:  1 eigenvalues not converged
     ethr =  1.21E-05,  avg # of iterations =  3.1

     negative rho (up, down):  1.194E-01 1.194E-01

     total cpu time spent up to now is     1878.1 secs

     total energy              =   -3195.11874144 Ry
     estimated scf accuracy    <       0.00807023 Ry

     total magnetization       =    -0.00 Bohr mag/cell
     absolute magnetization    =    27.52 Bohr mag/cell

     iteration # 11     ecut=    65.00 Ry     beta= 0.20
     CG style diagonalization
     c_bands:  2 eigenvalues not converged
     c_bands:  1 eigenvalues not converged
     c_bands:  2 eigenvalues not converged
     ethr =  2.74E-06,  avg # of iterations =  3.5

     negative rho (up, down):  1.194E-01 1.194E-01

     total cpu time spent up to now is     2067.1 secs

     total energy              =   -3195.12021251 Ry
     estimated scf accuracy    <       0.00277614 Ry

     total magnetization       =     0.00 Bohr mag/cell
     absolute magnetization    =    27.52 Bohr mag/cell

     iteration # 12     ecut=    65.00 Ry     beta= 0.20
     CG style diagonalization
     c_bands:  1 eigenvalues not converged
     c_bands:  1 eigenvalues not converged
     c_bands:  1 eigenvalues not converged
     ethr =  9.44E-07,  avg # of iterations =  3.2

     negative rho (up, down):  1.194E-01 1.193E-01

     total cpu time spent up to now is     2236.5 secs

     total energy              =   -3195.12017634 Ry
     estimated scf accuracy    <       0.00196247 Ry

     total magnetization       =    -0.00 Bohr mag/cell
     absolute magnetization    =    27.52 Bohr mag/cell

     iteration # 13     ecut=    65.00 Ry     beta= 0.20
     CG style diagonalization
     c_bands:  1 eigenvalues not converged
     c_bands:  1 eigenvalues not converged
     ethr =  6.68E-07,  avg # of iterations =  3.1

     negative rho (up, down):  1.193E-01 1.192E-01

     Magnetic moment per site:
     atom:    1    charge:   12.9872    magn:   -3.7212    constr:    0.0000
     atom:    2    charge:   13.0024    magn:   -3.6027    constr:    0.0000
     atom:    3    charge:   13.0141    magn:   -3.5947    constr:    0.0000
     atom:    4    charge:   13.0133    magn:    3.5954    constr:    0.0000
     atom:    5    charge:   12.9901    magn:    3.7210    constr:    0.0000
     atom:    6    charge:   13.0007    magn:    3.6036    constr:    0.0000
     atom:    7    charge:   10.4956    magn:   -0.0156    constr:    0.0000
     atom:    8    charge:   10.4948    magn:   -0.0123    constr:    0.0000
     atom:    9    charge:   10.4960    magn:    0.0122    constr:    0.0000
     atom:   10    charge:   10.4951    magn:   -0.0042    constr:    0.0000
     atom:   11    charge:   10.4935    magn:    0.0041    constr:    0.0000
     atom:   12    charge:   10.4957    magn:    0.0155    constr:    0.0000
     atom:   13    charge:    5.3952    magn:   -0.2076    constr:    0.0000
     atom:   14    charge:    5.3952    magn:   -0.2076    constr:    0.0000
     atom:   15    charge:    5.3952    magn:   -0.2076    constr:    0.0000
     atom:   16    charge:    5.3948    magn:   -0.2191    constr:    0.0000
     atom:   17    charge:    5.3948    magn:   -0.2191    constr:    0.0000
     atom:   18    charge:    5.3948    magn:   -0.2191    constr:    0.0000
     atom:   19    charge:    5.3939    magn:    0.2190    constr:    0.0000
     atom:   20    charge:    5.3939    magn:    0.2190    constr:    0.0000
     atom:   21    charge:    5.3939    magn:    0.2190    constr:    0.0000
     atom:   22    charge:    5.3861    magn:    0.0654    constr:    0.0000
     atom:   23    charge:    5.3861    magn:    0.0654    constr:    0.0000
     atom:   24    charge:    5.3861    magn:    0.0654    constr:    0.0000
     atom:   25    charge:    5.3860    magn:   -0.0656    constr:    0.0000
     atom:   26    charge:    5.3860    magn:   -0.0656    constr:    0.0000
     atom:   27    charge:    5.3860    magn:   -0.0656    constr:    0.0000
     atom:   28    charge:    5.3962    magn:    0.2076    constr:    0.0000
     atom:   29    charge:    5.3962    magn:    0.2076    constr:    0.0000
     atom:   30    charge:    5.3962    magn:    0.2076    constr:    0.0000

     total cpu time spent up to now is     2387.2 secs

     End of self-consistent calculation

 ------ SPIN UP ------------


          k = 0.0000 0.0000 0.0000 ( 22561 PWs)   bands (ev):

   -79.2183 -79.0160 -78.9309 -74.2713 -74.2161 -74.1459 -45.2343 -45.1809
   -45.1809 -45.0049 -45.0049 -44.9998 -44.9873 -44.8788 -44.8788 -40.4195
   -40.3702 -40.3702 -40.3550 -40.3196 -40.3196 -40.3052 -40.2462 -40.2462
   -11.2530 -11.2530 -11.2181 -11.2181 -11.1951 -11.1951 -11.1685 -11.1524
   -11.1444 -11.1444 -11.1407 -11.1407 -11.1290 -11.1289 -11.1063 -11.0926
   -11.0847 -11.0847 -11.0770 -11.0770 -11.0727 -11.0727 -11.0643 -11.0592
   -11.0592 -11.0494 -11.0358 -11.0358 -11.0205 -11.0205  -7.8864  -7.5053
    -7.4144  -6.6429  -6.5889  -6.1823  -6.1821  -6.0640  -6.0550  -6.0549
    -5.9617  -5.9617  -5.8622  -5.8621  -5.7133  -5.7132  -5.5433  -5.5433
     0.8310   1.0737   1.1519   1.9293   2.0649   2.8207   4.9564   4.9564
     5.0481   5.4595   5.4596   5.5344   5.5701   5.5702   5.7210   5.7734
     5.7734   5.9612   6.0375   6.0375   6.2323   6.2324   6.2716   6.4281
     6.4281   6.4305   6.5237   6.7464   6.7464   7.0604   7.0605   7.1867
     7.3445   7.6337   7.6337   7.7611   7.8795   7.8796   7.9967   7.9967
     8.1821   8.3424   8.3574   8.3575   8.5323   8.5366   8.5366   8.6628
     8.6876   8.6877   8.8288   8.8289   8.9799   8.9800   9.3296   9.3297
     9.3552   9.3709   9.3710   9.4401   9.4401   9.7841   9.7842  10.1144
    10.2571  10.2572  10.2688  10.4466  10.5437  10.6773  10.7423  10.9728
    10.9728  11.6266  11.6267  12.1393  12.1393  12.3478  12.3532  12.3532
    12.4034  12.4626  12.4993  12.4993  13.3254  13.3254  13.9607  13.9608
    14.5057  14.5058  15.0712  15.1939  15.2953  15.3461  16.3897  16.3897
    16.5196  16.5197  16.5584  16.5584  16.8602  16.9014  17.1069  17.1069
    17.1868  17.1868  17.5978  17.5978  18.2935  19.5797  19.7970  19.9736
    20.6923  20.6923  20.9560  21.0393  21.6873  21.6874  21.7978  21.7978
    22.1214  22.1214  22.8312  22.9867  23.0335  23.0341  23.1863  23.6853

     occupation numbers 
     1.0000   1.0000   1.0000   1.0000   1.0000   1.0000   1.0000   1.0000
     1.0000   1.0000   1.0000   1.0000   1.0000   1.0000   1.0000   1.0000
     1.0000   1.0000   1.0000   1.0000   1.0000   1.0000   1.0000   1.0000
     1.0000   1.0000   1.0000   1.0000   1.0000   1.0000   1.0000   1.0000
     1.0000   1.0000   1.0000   1.0000   1.0000   1.0000   1.0000   1.0000
     1.0000   1.0000   1.0000   1.0000   1.0000   1.0000   1.0000   1.0000
     1.0000   1.0000   1.0000   1.0000   1.0000   1.0000   1.0000   1.0000
     1.0000   1.0000   1.0000   1.0000   1.0000   1.0000   1.0000   1.0000
     1.0000   1.0000   1.0000   1.0000   1.0000   1.0000   1.0000   1.0000
     1.0000   1.0000   1.0000   1.0000   1.0000   1.0000   1.0000   1.0000
     1.0000   1.0000   1.0000   1.0000   1.0000   1.0000   1.0000   1.0000
     1.0000   1.0000   1.0000   1.0000   1.0000   1.0000   1.0000   1.0000
     1.0000   1.0000   1.0000   1.0000   1.0000   1.0000   1.0000   1.0000
     1.0000   1.0000   1.0000   1.0000   1.0000   1.0000   1.0000   1.0000
     1.0000   1.0000   1.0000   1.0000   1.0000   1.0000   1.0000   1.0000
     1.0000   1.0000   1.0000   1.0000   1.0000   1.0000   1.0000   1.0000
     1.0000   1.0000   1.0000   1.0000   1.0000   1.0000   1.0000   1.0000
     1.0000   1.0000   1.0000   1.0000   1.0000   1.0000   1.0000   1.0000
     1.0000   0.9909   0.9908   0.0015   0.0015   0.0000   0.0000   0.0000
     0.0000   0.0000   0.0000   0.0000   0.0000   0.0000   0.0000   0.0000
     0.0000   0.0000   0.0000   0.0000   0.0000   0.0000   0.0000   0.0000
     0.0000   0.0000   0.0000   0.0000   0.0000   0.0000   0.0000   0.0000
     0.0000   0.0000   0.0000   0.0000   0.0000   0.0000   0.0000   0.0000
     0.0000   0.0000   0.0000   0.0000   0.0000   0.0000   0.0000   0.0000
     0.0000   0.0000   0.0000   0.0000   0.0000   0.0000   0.0000   0.0000

          k = 0.0000-0.5774 0.0000 ( 22390 PWs)   bands (ev):

   -79.2183 -79.0160 -78.9309 -74.2713 -74.2161 -74.1459 -45.2343 -45.1809
   -45.1809 -45.0049 -45.0049 -44.9998 -44.9873 -44.8788 -44.8788 -40.4195
   -40.3702 -40.3702 -40.3550 -40.3196 -40.3196 -40.3052 -40.2462 -40.2462
   -11.2485 -11.2185 -11.2043 -11.1953 -11.1893 -11.1828 -11.1726 -11.1600
   -11.1447 -11.1404 -11.1332 -11.1297 -11.1204 -11.1183 -11.1127 -11.1024
   -11.0930 -11.0905 -11.0837 -11.0791 -11.0772 -11.0756 -11.0723 -11.0628
   -11.0613 -11.0511 -11.0478 -11.0392 -11.0363 -11.0236  -7.2306  -7.1893
    -7.0203  -6.8534  -6.8140  -6.4396  -6.4172  -6.3134  -6.1755  -6.0951
    -6.0618  -6.0347  -5.9670  -5.8949  -5.7880  -5.7437  -5.6523  -5.5635
     1.0165   1.2405   1.2620   1.5583   1.6213   1.8353   5.0601   5.3415
     5.3883   5.5078   5.6916   5.7044   5.8099   5.8430   5.8706   6.0356
     6.0682   6.1228   6.2312   6.2994   6.4997   6.5877   6.6572   6.7449
     6.7789   6.8325   7.0019   7.0670   7.1731   7.2319   7.2765   7.4055
     7.4766   7.5310   7.6517   7.7364   7.7878   7.8169   7.9127   7.9533
     8.0793   8.1664   8.2091   8.2911   8.3557   8.3870   8.4910   8.5260
     8.5777   8.6482   8.7224   8.7852   8.9543   9.0862   9.1037   9.1454
     9.2018   9.2425   9.2774   9.3899   9.4310   9.5129   9.5707   9.8793
    10.0700  10.1978  10.3803  10.4106  10.4633  10.6265  10.9023  10.9469
    11.0540  11.0903  11.5610  12.0974  12.1674  12.2852  12.3408  12.3819
    12.4461  12.4984  12.6782  12.7606  13.3684  13.4481  13.6280  13.8050
    13.8877  14.3921  14.5980  15.1360  15.1797  15.3703  15.4496  15.4811
    15.5279  15.5701  15.6500  16.6457  16.6924  16.7734  16.8421  16.9325
    16.9940  17.0625  17.1249  17.2032  20.0246  20.1971  20.4720  20.9854
    21.1217  21.2081  21.6947  21.8423  21.9752  22.2844  22.3226  22.3437
    22.4641  22.5101  22.8301  22.8887  23.1102  23.1776  23.2384  23.2935

     occupation numbers 
     1.0000   1.0000   1.0000   1.0000   1.0000   1.0000   1.0000   1.0000
     1.0000   1.0000   1.0000   1.0000   1.0000   1.0000   1.0000   1.0000
     1.0000   1.0000   1.0000   1.0000   1.0000   1.0000   1.0000   1.0000
     1.0000   1.0000   1.0000   1.0000   1.0000   1.0000   1.0000   1.0000
     1.0000   1.0000   1.0000   1.0000   1.0000   1.0000   1.0000   1.0000
     1.0000   1.0000   1.0000   1.0000   1.0000   1.0000   1.0000   1.0000
     1.0000   1.0000   1.0000   1.0000   1.0000   1.0000   1.0000   1.0000
     1.0000   1.0000   1.0000   1.0000   1.0000   1.0000   1.0000   1.0000
     1.0000   1.0000   1.0000   1.0000   1.0000   1.0000   1.0000   1.0000
     1.0000   1.0000   1.0000   1.0000   1.0000   1.0000   1.0000   1.0000
     1.0000   1.0000   1.0000   1.0000   1.0000   1.0000   1.0000   1.0000
     1.0000   1.0000   1.0000   1.0000   1.0000   1.0000   1.0000   1.0000
     1.0000   1.0000   1.0000   1.0000   1.0000   1.0000   1.0000   1.0000
     1.0000   1.0000   1.0000   1.0000   1.0000   1.0000   1.0000   1.0000
     1.0000   1.0000   1.0000   1.0000   1.0000   1.0000   1.0000   1.0000
     1.0000   1.0000   1.0000   1.0000   1.0000   1.0000   1.0000   1.0000
     1.0000   1.0000   1.0000   1.0000   1.0000   1.0000   1.0000   1.0000
     1.0000   1.0000   1.0000   1.0000   1.0000   1.0000   1.0000   1.0000
     1.0000   1.0000   0.9988   0.0057   0.0006   0.0000   0.0000   0.0000
     0.0000   0.0000   0.0000   0.0000   0.0000   0.0000   0.0000   0.0000
     0.0000   0.0000   0.0000   0.0000   0.0000   0.0000   0.0000   0.0000
     0.0000   0.0000   0.0000   0.0000   0.0000   0.0000   0.0000   0.0000
     0.0000   0.0000   0.0000   0.0000   0.0000   0.0000   0.0000   0.0000
     0.0000   0.0000   0.0000   0.0000   0.0000   0.0000   0.0000   0.0000
     0.0000   0.0000   0.0000   0.0000   0.0000   0.0000   0.0000   0.0000

 ------ SPIN DOWN ----------


          k = 0.0000 0.0000 0.0000 ( 22561 PWs)   bands (ev):

   -79.2115 -79.0203 -78.9328 -74.2780 -74.2123 -74.1448 -45.2276 -45.1742
   -45.1742 -45.0091 -45.0090 -45.0017 -44.9917 -44.8806 -44.8806 -40.4261
   -40.3769 -40.3769 -40.3513 -40.3159 -40.3159 -40.3043 -40.2452 -40.2452
   -11.2519 -11.2519 -11.2186 -11.2186 -11.1952 -11.1952 -11.1652 -11.1555
   -11.1439 -11.1439 -11.1391 -11.1391 -11.1313 -11.1313 -11.1059 -11.0928
   -11.0844 -11.0844 -11.0758 -11.0758 -11.0727 -11.0727 -11.0626 -11.0606
   -11.0606 -11.0515 -11.0342 -11.0342 -11.0224 -11.0224  -7.8848  -7.5046
    -7.4155  -6.6418  -6.5893  -6.1788  -6.1787  -6.0655  -6.0534  -6.0533
    -5.9612  -5.9612  -5.8611  -5.8610  -5.7164  -5.7164  -5.5465  -5.5465
     0.8317   1.0731   1.1521   1.9292   2.0651   2.8204   4.9582   4.9582
     5.0498   5.4603   5.4604   5.5352   5.5705   5.5705   5.7203   5.7743
     5.7743   5.9623   6.0373   6.0374   6.2316   6.2317   6.2723   6.4292
     6.4292   6.4293   6.5223   6.7449   6.7449   7.0618   7.0618   7.1867
     7.3453   7.6315   7.6316   7.7614   7.8782   7.8783   7.9981   7.9981
     8.1806   8.3443   8.3579   8.3579   8.5326   8.5362   8.5362   8.6619
     8.6880   8.6881   8.8294   8.8294   8.9782   8.9783   9.3300   9.3301
     9.3559   9.3711   9.3712   9.4403   9.4404   9.7828   9.7829  10.1142
    10.2593  10.2593  10.2690  10.4442  10.5446  10.6775  10.7437  10.9733
    10.9734  11.6293  11.6294  12.1359  12.1359  12.3447  12.3542  12.3542
    12.4048  12.4612  12.4983  12.4983  13.3228  13.3229  13.9613  13.9613
    14.5036  14.5036  15.0728  15.1942  15.2947  15.3452  16.3917  16.3917
    16.5186  16.5187  16.5582  16.5582  16.8600  16.9013  17.1068  17.1068
    17.1874  17.1874  17.5966  17.5966  18.2950  19.5805  19.7974  19.9726
    20.6932  20.6932  20.9554  21.0386  21.6877  21.6877  21.7973  21.7973
    22.1217  22.1218  22.8325  22.9888  23.0329  23.0333  23.1853  23.1856

     occupation numbers 
     1.0000   1.0000   1.0000   1.0000   1.0000   1.0000   1.0000   1.0000
     1.0000   1.0000   1.0000   1.0000   1.0000   1.0000   1.0000   1.0000
     1.0000   1.0000   1.0000   1.0000   1.0000   1.0000   1.0000   1.0000
     1.0000   1.0000   1.0000   1.0000   1.0000   1.0000   1.0000   1.0000
     1.0000   1.0000   1.0000   1.0000   1.0000   1.0000   1.0000   1.0000
     1.0000   1.0000   1.0000   1.0000   1.0000   1.0000   1.0000   1.0000
     1.0000   1.0000   1.0000   1.0000   1.0000   1.0000   1.0000   1.0000
     1.0000   1.0000   1.0000   1.0000   1.0000   1.0000   1.0000   1.0000
     1.0000   1.0000   1.0000   1.0000   1.0000   1.0000   1.0000   1.0000
     1.0000   1.0000   1.0000   1.0000   1.0000   1.0000   1.0000   1.0000
     1.0000   1.0000   1.0000   1.0000   1.0000   1.0000   1.0000   1.0000
     1.0000   1.0000   1.0000   1.0000   1.0000   1.0000   1.0000   1.0000
     1.0000   1.0000   1.0000   1.0000   1.0000   1.0000   1.0000   1.0000
     1.0000   1.0000   1.0000   1.0000   1.0000   1.0000   1.0000   1.0000
     1.0000   1.0000   1.0000   1.0000   1.0000   1.0000   1.0000   1.0000
     1.0000   1.0000   1.0000   1.0000   1.0000   1.0000   1.0000   1.0000
     1.0000   1.0000   1.0000   1.0000   1.0000   1.0000   1.0000   1.0000
     1.0000   1.0000   1.0000   1.0000   1.0000   1.0000   1.0000   1.0000
     1.0000   0.9901   0.9901   0.0017   0.0017   0.0000   0.0000   0.0000
     0.0000   0.0000   0.0000   0.0000   0.0000   0.0000   0.0000   0.0000
     0.0000   0.0000   0.0000   0.0000   0.0000   0.0000   0.0000   0.0000
     0.0000   0.0000   0.0000   0.0000   0.0000   0.0000   0.0000   0.0000
     0.0000   0.0000   0.0000   0.0000   0.0000   0.0000   0.0000   0.0000
     0.0000   0.0000   0.0000   0.0000   0.0000   0.0000   0.0000   0.0000
     0.0000   0.0000   0.0000   0.0000   0.0000   0.0000   0.0000   0.0000

          k = 0.0000-0.5774 0.0000 ( 22390 PWs)   bands (ev):

   -79.2115 -79.0203 -78.9328 -74.2780 -74.2123 -74.1448 -45.2276 -45.1742
   -45.1742 -45.0090 -45.0090 -45.0017 -44.9917 -44.8806 -44.8806 -40.4261
   -40.3769 -40.3769 -40.3513 -40.3159 -40.3159 -40.3043 -40.2452 -40.2452
   -11.2473 -11.2190 -11.2014 -11.1956 -11.1913 -11.1819 -11.1728 -11.1605
   -11.1440 -11.1417 -11.1311 -11.1277 -11.1221 -11.1190 -11.1122 -11.1047
   -11.0925 -11.0899 -11.0839 -11.0788 -11.0778 -11.0754 -11.0720 -11.0624
   -11.0605 -11.0505 -11.0482 -11.0396 -11.0372 -11.0256  -7.2275  -7.1877
    -7.0212  -6.8531  -6.8155  -6.4395  -6.4167  -6.3106  -6.1745  -6.0948
    -6.0597  -6.0339  -5.9671  -5.8933  -5.7903  -5.7463  -5.6550  -5.5666
     1.0176   1.2400   1.2622   1.5581   1.6218   1.8341   5.0625   5.3430
     5.3904   5.5103   5.6914   5.7046   5.8111   5.8426   5.8705   6.0360
     6.0688   6.1226   6.2315   6.2978   6.5001   6.5871   6.6583   6.7456
     6.7780   6.8317   7.0025   7.0675   7.1731   7.2316   7.2772   7.4059
     7.4764   7.5308   7.6512   7.7357   7.7887   7.8170   7.9118   7.9512
     8.0789   8.1654   8.2093   8.2917   8.3556   8.3873   8.4909   8.5263
     8.5776   8.6485   8.7225   8.7846   8.9539   9.0852   9.1046   9.1448
     9.2021   9.2420   9.2759   9.3890   9.4315   9.5134   9.5717   9.8808
    10.0686  10.1976  10.3818  10.4106  10.4638  10.6270  10.9047  10.9479
    11.0544  11.0925  11.5636  12.0941  12.1651  12.2807  12.3407  12.3825
    12.4474  12.4982  12.6778  12.7590  13.3659  13.4484  13.6243  13.8054
    13.8878  14.3902  14.5986  15.1370  15.1806  15.3701  15.4496  15.4815
    15.5284  15.5687  15.6490  16.6470  16.6921  16.7723  16.8423  16.9321
    16.9957  17.0649  17.1229  17.2005  20.0281  20.1989  20.4737  20.9843
    21.1186  21.2069  21.6954  21.8423  21.9758  22.2846  22.3252  22.3438
    22.4643  22.5072  22.8306  22.8893  23.1106  23.1774  23.2347  23.2896

     occupation numbers 
     1.0000   1.0000   1.0000   1.0000   1.0000   1.0000   1.0000   1.0000
     1.0000   1.0000   1.0000   1.0000   1.0000   1.0000   1.0000   1.0000
     1.0000   1.0000   1.0000   1.0000   1.0000   1.0000   1.0000   1.0000
     1.0000   1.0000   1.0000   1.0000   1.0000   1.0000   1.0000   1.0000
     1.0000   1.0000   1.0000   1.0000   1.0000   1.0000   1.0000   1.0000
     1.0000   1.0000   1.0000   1.0000   1.0000   1.0000   1.0000   1.0000
     1.0000   1.0000   1.0000   1.0000   1.0000   1.0000   1.0000   1.0000
     1.0000   1.0000   1.0000   1.0000   1.0000   1.0000   1.0000   1.0000
     1.0000   1.0000   1.0000   1.0000   1.0000   1.0000   1.0000   1.0000
     1.0000   1.0000   1.0000   1.0000   1.0000   1.0000   1.0000   1.0000
     1.0000   1.0000   1.0000   1.0000   1.0000   1.0000   1.0000   1.0000
     1.0000   1.0000   1.0000   1.0000   1.0000   1.0000   1.0000   1.0000
     1.0000   1.0000   1.0000   1.0000   1.0000   1.0000   1.0000   1.0000
     1.0000   1.0000   1.0000   1.0000   1.0000   1.0000   1.0000   1.0000
     1.0000   1.0000   1.0000   1.0000   1.0000   1.0000   1.0000   1.0000
     1.0000   1.0000   1.0000   1.0000   1.0000   1.0000   1.0000   1.0000
     1.0000   1.0000   1.0000   1.0000   1.0000   1.0000   1.0000   1.0000
     1.0000   1.0000   1.0000   1.0000   1.0000   1.0000   1.0000   1.0000
     1.0000   1.0000   0.9987   0.0062   0.0006   0.0000   0.0000   0.0000
     0.0000   0.0000   0.0000   0.0000   0.0000   0.0000   0.0000   0.0000
     0.0000   0.0000   0.0000   0.0000   0.0000   0.0000   0.0000   0.0000
     0.0000   0.0000   0.0000   0.0000   0.0000   0.0000   0.0000   0.0000
     0.0000   0.0000   0.0000   0.0000   0.0000   0.0000   0.0000   0.0000
     0.0000   0.0000   0.0000   0.0000   0.0000   0.0000   0.0000   0.0000
     0.0000   0.0000   0.0000   0.0000   0.0000   0.0000   0.0000   0.0000

     the Fermi energy is    11.8536 ev

!    total energy              =   -3195.12051331 Ry
     estimated scf accuracy    <       0.00031392 Ry
     smearing contrib. (-TS)   =      -0.00046009 Ry
     internal energy E=F+TS    =   -3195.12005322 Ry

     The total energy is F=E-TS. E is the sum of the following terms:
     one-electron contribution =   -1315.55862176 Ry
     hartree contribution      =     843.30145569 Ry
     xc contribution           =    -695.21375799 Ry
     ewald contribution        =   -2027.64912917 Ry

     total magnetization       =    -0.00 Bohr mag/cell
     absolute magnetization    =    27.57 Bohr mag/cell

     convergence has been achieved in  13 iterations

     Writing output data file /home/aldair1809/Documentos/QE/4BFO/UHUBBARD/temp/ecut_ecutwfc_65.in/bifeo3-scf.save/

     init_run     :     44.69s CPU     45.87s WALL (       1 calls)
     electrons    :   2308.67s CPU   2340.87s WALL (       1 calls)

     Called by init_run:
     wfcinit      :     39.96s CPU     40.54s WALL (       1 calls)
     wfcinit:atom :      0.07s CPU      0.14s WALL (       4 calls)
     wfcinit:wfcr :     39.45s CPU     39.81s WALL (       4 calls)
     potinit      :      1.16s CPU      1.21s WALL (       1 calls)
     hinit0       :      1.98s CPU      2.00s WALL (       1 calls)

     Called by electrons:
     c_bands      :   2084.88s CPU   2102.02s WALL (      13 calls)
     sum_band     :    195.53s CPU    203.98s WALL (      13 calls)
     v_of_rho     :      4.37s CPU      4.55s WALL (      14 calls)
     v_h          :      0.16s CPU      0.17s WALL (      14 calls)
     v_xc         :      4.21s CPU      4.38s WALL (      14 calls)
     newd         :     24.52s CPU     31.46s WALL (      14 calls)
     mix_rho      :      1.04s CPU      1.05s WALL (      13 calls)

     Called by c_bands:
     init_us_2    :      2.88s CPU      2.94s WALL (     108 calls)
     ccgdiagg     :   1589.97s CPU   1602.84s WALL (      52 calls)
     wfcrot       :    531.82s CPU    536.43s WALL (      52 calls)

     Called by sum_band:
     sum_band:wei :      0.01s CPU      0.01s WALL (      13 calls)
     sum_band:loo :    154.87s CPU    156.58s WALL (      13 calls)
     sum_band:buf :      0.54s CPU      0.55s WALL (      52 calls)
     sum_band:ini :      1.36s CPU      1.37s WALL (      52 calls)
     sum_band:cal :     96.23s CPU     96.44s WALL (      52 calls)
     sum_band:bec :      0.27s CPU      0.27s WALL (      52 calls)
     addusdens    :     39.82s CPU     46.50s WALL (      13 calls)
     addusd:skk   :      0.11s CPU      0.13s WALL (      52 calls)
     addusd:dgemm :     21.11s CPU     26.52s WALL (     104 calls)
     addusd:qvan2 :     18.27s CPU     18.32s WALL (     104 calls)

     Called by *cgdiagg:
     h_psi        :   1009.35s CPU   1023.51s WALL (   23999 calls)
     s_psi        :    562.81s CPU    563.99s WALL (   47946 calls)

     Called by h_psi:
     h_psi:calbec :    338.08s CPU    340.30s WALL (   23999 calls)
     vloc_psi     :    338.26s CPU    349.69s WALL (   23999 calls)
     add_vuspsi   :    331.58s CPU    332.16s WALL (   23999 calls)
     hs_1psi      :    936.03s CPU    946.59s WALL (   23947 calls)
     s_1psi       :    466.70s CPU    468.25s WALL (   23947 calls)

     General routines
     calbec       :    670.26s CPU    673.93s WALL (   47998 calls)
     fft          :      2.40s CPU      2.57s WALL (     292 calls)
     ffts         :      0.22s CPU      0.24s WALL (      26 calls)
     fftw         :    332.37s CPU    344.02s WALL (   79126 calls)

     Parallel routines
     fft_scatt_xy :     87.67s CPU     88.57s WALL (   79444 calls)
     fft_scatt_yz :     40.64s CPU     47.06s WALL (   79444 calls)

     PWSCF        :  39m13.96s CPU  39m47.83s WALL


   This run was terminated on:  15:46:45  29Sep2024            

=------------------------------------------------------------------------------=
   JOB DONE.
=------------------------------------------------------------------------------=
