
     Program PWSCF v.6.7MaX starts on 29Sep2024 at 15:46:45 

     This program is part of the open-source Quantum ESPRESSO suite
     for quantum simulation of materials; please cite
         "P. Giannozzi et al., J. Phys.:Condens. Matter 21 395502 (2009);
         "P. Giannozzi et al., J. Phys.:Condens. Matter 29 465901 (2017);
          URL http://www.quantum-espresso.org", 
     in publications or presentations arising from this work. More details at
     http://www.quantum-espresso.org/quote

     Parallel version (MPI), running on     4 processors

     MPI processes distributed on     1 nodes
     R & G space division:  proc/nbgrp/npool/nimage =       4
     Waiting for input...
     Reading input from standard input

     Current dimensions of program PWSCF are:
     Max number of different atomic species (ntypx) = 10
     Max number of k-points (npk) =  40000
     Max angular momentum in pseudopotentials (lmaxx) =  3
     Message from routine iosys:
     wrong startingpot: use default (1)

     Subspace diagonalization in iterative solution of the eigenvalue problem:
     one sub-group per band group will be used
     scalapack distributed-memory algorithm (size of sub-group:  2*  2 procs)

     Message from routine setup:
     using ibrav=0 with symmetry is DISCOURAGED, use correct ibrav instead

     Parallelization info
     --------------------
     sticks:   dense  smooth     PW     G-vecs:    dense   smooth      PW
     Min         537     537    145                50131    50131    7087
     Max         538     538    146                50134    50134    7096
     Sum        2149    2149    583               200529   200529   28375



     bravais-lattice index     =            0
     lattice parameter (alat)  =      10.5468  a.u.
     unit-cell volume          =    2535.5110 (a.u.)^3
     number of atoms/cell      =           30
     number of atomic types    =            4
     number of electrons       =       294.00
     number of Kohn-Sham states=          200
     kinetic-energy cutoff     =      70.0000  Ry
     charge density cutoff     =     280.0000  Ry
     scf convergence threshold =      1.0E-03
     mixing beta               =       0.2000
     number of iterations used =            8  plain     mixing
     Exchange-correlation=  SLA  PW   PBX  PBC
                           (   1   4   3   4   0   0   0)

     celldm(1)=  10.546849  celldm(2)=   0.000000  celldm(3)=   0.000000
     celldm(4)=   0.000000  celldm(5)=   0.000000  celldm(6)=   0.000000

     crystal axes: (cart. coord. in units of alat)
               a(1) = (   1.000000  -0.000000  -0.000000 )  
               a(2) = (  -0.500000   0.866025  -0.000000 )  
               a(3) = (   0.000000  -0.000000   2.495552 )  

     reciprocal axes: (cart. coord. in units 2 pi/alat)
               b(1) = (  1.000000  0.577350  0.000000 )  
               b(2) = (  0.000000  1.154701  0.000000 )  
               b(3) = (  0.000000  0.000000  0.400713 )  


     PseudoPot. # 1 for O  read from file:
     /home/aldair1809/Programas/QE/q-e-qe-7.3/pseudo/o_pbe_v1.2.uspp.F.UPF
     MD5 check sum: 734c27235a0248c51dbae37a1fbe46ec
     Pseudo is Ultrasoft + core correction, Zval =  6.0
     Generated by new atomic code, or converted to UPF format
     Using radial grid of  737 points,  5 beta functions with: 
                l(1) =   0
                l(2) =   0
                l(3) =   1
                l(4) =   1
                l(5) =   2
     Q(r) pseudized with  8 coefficients,  rinner =    0.900   0.900   0.900
                                                       0.900   0.900

     PseudoPot. # 2 for Bi read from file:
     /home/aldair1809/Programas/QE/q-e-qe-7.3/pseudo/bi_pbe_v1.uspp.F.UPF
     MD5 check sum: cceb9f28ec65b6d7ff33140f5b0b1758
     Pseudo is Ultrasoft + core correction, Zval = 15.0
     Generated by new atomic code, or converted to UPF format
     Using radial grid of  899 points,  6 beta functions with: 
                l(1) =   0
                l(2) =   0
                l(3) =   1
                l(4) =   1
                l(5) =   2
                l(6) =   2
     Q(r) pseudized with  6 coefficients,  rinner =    1.000   1.000   1.000
                                                       1.000   1.000

     PseudoPot. # 3 for Fe read from file:
     /home/aldair1809/Programas/QE/q-e-qe-7.3/pseudo/fe_pbe_v1.5.uspp.F.UPF
     MD5 check sum: a130daea23fe5165f5d574ae7f82ed95
     Pseudo is Ultrasoft + core correction, Zval = 16.0
     Generated by new atomic code, or converted to UPF format
     Using radial grid of  861 points,  6 beta functions with: 
                l(1) =   0
                l(2) =   0
                l(3) =   1
                l(4) =   1
                l(5) =   2
                l(6) =   2
     Q(r) pseudized with  8 coefficients,  rinner =    1.000   1.000   1.000
                                                       1.000   1.000

     PseudoPot. # 4 for Fe read from file:
     /home/aldair1809/Programas/QE/q-e-qe-7.3/pseudo/fe_pbe_v1.5.uspp.F.UPF
     MD5 check sum: a130daea23fe5165f5d574ae7f82ed95
     Pseudo is Ultrasoft + core correction, Zval = 16.0
     Generated by new atomic code, or converted to UPF format
     Using radial grid of  861 points,  6 beta functions with: 
                l(1) =   0
                l(2) =   0
                l(3) =   1
                l(4) =   1
                l(5) =   2
                l(6) =   2
     Q(r) pseudized with  8 coefficients,  rinner =    1.000   1.000   1.000
                                                       1.000   1.000

     atomic species   valence    mass     pseudopotential
        O              6.00    15.99940     O ( 1.00)
        Bi            15.00   208.98040     Bi( 1.00)
        Fe1           16.00    55.84500     Fe( 1.00)
        Fe2           16.00    55.84500     Fe( 1.00)

     Starting magnetic structure 
     atomic species   magnetization
        O            0.000
        Bi           0.000
        Fe1         -0.800
        Fe2          0.800

      3 Sym. Ops. (no inversion) found


                                    s                        frac. trans.

      isym =  1     identity                                     

 cryst.   s( 1) = (     1          0          0      )
                  (     0          1          0      )
                  (     0          0          1      )

 cart.    s( 1) = (  1.0000000 -0.0000000  0.0000000 )
                  (  0.0000000  1.0000000  0.0000000 )
                  (  0.0000000  0.0000000  1.0000000 )


      isym =  2     120 deg rotation - cryst. axis [0,0,1]       

 cryst.   s( 2) = (     0          1          0      )
                  (    -1         -1          0      )
                  (     0          0          1      )

 cart.    s( 2) = ( -0.5000000 -0.8660254  0.0000000 )
                  (  0.8660254 -0.5000000  0.0000000 )
                  (  0.0000000  0.0000000  1.0000000 )


      isym =  3     120 deg rotation - cryst. axis [0,0,-1]      

 cryst.   s( 3) = (    -1         -1          0      )
                  (     1          0          0      )
                  (     0          0          1      )

 cart.    s( 3) = ( -0.5000000  0.8660254  0.0000000 )
                  ( -0.8660254 -0.5000000  0.0000000 )
                  (  0.0000000  0.0000000  1.0000000 )


   Cartesian axes

     site n.     atom                  positions (alat units)
         1           Fe1 tau(   1) = (   0.0000000   0.0000000   1.9384582  )
         2           Fe1 tau(   2) = (  -0.0000005   0.5773506   2.3615556  )
         3           Fe1 tau(   3) = (   0.5000005   0.2886748   1.5200787  )
         4           Fe2 tau(   4) = (   0.5000005   0.2886748   0.2722626  )
         5           Fe2 tau(   5) = (   0.0000000   0.0000000   0.6907071  )
         6           Fe2 tau(   6) = (  -0.0000005   0.5773506   1.1137452  )
         7           Bi  tau(   7) = (   0.5000005   0.2886748   2.0843143  )
         8           Bi  tau(   8) = (  -0.0000005   0.5773506   1.6713980  )
         9           Bi  tau(   9) = (  -0.0000005   0.5773506   0.4235448  )
        10           Bi  tau(  10) = (   0.0000000   0.0000000   0.0002821  )
        11           Bi  tau(  11) = (   0.0000000   0.0000000   1.2481025  )
        12           Bi  tau(  12) = (   0.5000005   0.2886748   0.8364865  )
        13           O   tau(  13) = (  -0.3105904   0.6551932   2.2011299  )
        14           O   tau(  14) = (   0.0878817   0.2694488   2.2011299  )
        15           O   tau(  15) = (   0.2227102   0.8074080   2.2011299  )
        16           O   tau(  16) = (   0.4087504   0.5589755   1.7846473  )
        17           O   tau(  17) = (   0.3115373   0.0745013   1.7846473  )
        18           O   tau(  18) = (   0.7797108   0.2325494   1.7846473  )
        19           O   tau(  19) = (   0.6884743   0.0745026   0.5368244  )
        20           O   tau(  20) = (   0.5912412   0.5589858   0.5368244  )
        21           O   tau(  21) = (   0.2202830   0.2325379   0.5368244  )
        22           O   tau(  22) = (  -0.0823010   0.8482993   0.1166193  )
        23           O   tau(  23) = (  -0.1934983   0.3706010   0.1166193  )
        24           O   tau(  24) = (   0.2757993   0.5131505   0.1166193  )
        25           O   tau(  25) = (   0.1934855   0.3705936   1.3644430  )
        26           O   tau(  26) = (   0.0823138   0.8482919   1.3644430  )
        27           O   tau(  27) = (  -0.2757993   0.5131653   1.3644430  )
        28           O   tau(  28) = (  -0.0878870   0.2694458   0.9533686  )
        29           O   tau(  29) = (   0.3105971   0.6551893   0.9533686  )
        30           O   tau(  30) = (  -0.2227086   0.8074149   0.9533686  )

   Crystallographic axes

     site n.     atom                  positions (cryst. coord.)
         1           Fe1 tau(   1) = (  0.0000000  0.0000000  0.7767652  )
         2           Fe1 tau(   2) = (  0.3333330  0.6666670  0.9463058  )
         3           Fe1 tau(   3) = (  0.6666670  0.3333330  0.6091152  )
         4           Fe2 tau(   4) = (  0.6666670  0.3333330  0.1090991  )
         5           Fe2 tau(   5) = (  0.0000000  0.0000000  0.2767753  )
         6           Fe2 tau(   6) = (  0.3333330  0.6666670  0.4462921  )
         7           Bi  tau(   7) = (  0.6666670  0.3333330  0.8352117  )
         8           Bi  tau(   8) = (  0.3333330  0.6666670  0.6697508  )
         9           Bi  tau(   9) = (  0.3333330  0.6666670  0.1697199  )
        10           Bi  tau(  10) = (  0.0000000  0.0000000  0.0001130  )
        11           Bi  tau(  11) = (  0.0000000  0.0000000  0.5001308  )
        12           Bi  tau(  12) = (  0.6666670  0.3333330  0.3351910  )
        13           O   tau(  13) = (  0.0676856  0.7565520  0.8820212  )
        14           O   tau(  14) = (  0.2434480  0.3111326  0.8820212  )
        15           O   tau(  15) = (  0.6888674  0.9323144  0.8820212  )
        16           O   tau(  16) = (  0.7314750  0.6454493  0.7151312  )
        17           O   tau(  17) = (  0.3545507  0.0860267  0.7151312  )
        18           O   tau(  18) = (  0.9139733  0.2685250  0.7151312  )
        19           O   tau(  19) = (  0.7314884  0.0860282  0.2151125  )
        20           O   tau(  20) = (  0.9139718  0.6454612  0.2151125  )
        21           O   tau(  21) = (  0.3545388  0.2685116  0.2151125  )
        22           O   tau(  22) = (  0.4074649  0.9795317  0.0467309  )
        23           O   tau(  23) = (  0.0204683  0.4279331  0.0467309  )
        24           O   tau(  24) = (  0.5720669  0.5925351  0.0467309  )
        25           O   tau(  25) = (  0.4074478  0.4279246  0.5467499  )
        26           O   tau(  26) = (  0.5720754  0.9795232  0.5467499  )
        27           O   tau(  27) = (  0.0204768  0.5925522  0.5467499  )
        28           O   tau(  28) = (  0.0676775  0.3111292  0.3820271  )
        29           O   tau(  29) = (  0.6888708  0.7565474  0.3820271  )
        30           O   tau(  30) = (  0.2434526  0.9323225  0.3820271  )

     number of k points=     2  Gaussian smearing, width (Ry)=  0.0100
                       cart. coord. in units 2pi/alat
        k(    1) = (   0.0000000   0.0000000   0.0000000), wk =   0.2500000
        k(    2) = (   0.0000000  -0.5773503   0.0000000), wk =   0.7500000

                       cryst. coord.
        k(    1) = (   0.0000000   0.0000000   0.0000000), wk =   0.2500000
        k(    2) = (   0.0000000  -0.5000000   0.0000000), wk =   0.7500000

     Dense  grid:   200529 G-vectors     FFT dimensions: (  60,  60, 144)

     Dynamical RAM for                 wfc:      19.13 MB

     Dynamical RAM for     wfc (w. buffer):      95.66 MB

     Dynamical RAM for           str. fact:       3.06 MB

     Dynamical RAM for           local pot:       0.00 MB

     Dynamical RAM for          nlocal pot:      43.05 MB

     Dynamical RAM for                qrad:       5.37 MB

     Dynamical RAM for          rho,v,vnew:      10.52 MB

     Dynamical RAM for               rhoin:       3.51 MB

     Dynamical RAM for            rho*nmix:      24.48 MB

     Dynamical RAM for           G-vectors:       3.25 MB

     Dynamical RAM for          h,s,v(r/c):       0.46 MB

     Dynamical RAM for          <psi|beta>:       1.37 MB

     Dynamical RAM for      wfcinit/wfcrot:      39.98 MB

     Dynamical RAM for           addusdens:     156.82 MB

     Estimated static dynamical RAM per process >     198.65 MB

     Estimated max dynamical RAM per process >     355.47 MB

     Estimated total dynamical RAM >       1.39 GB

     Check: negative core charge=   -0.000020
     Generating pointlists ...
     new r_m :   0.1458 (alat units)  1.5374 (a.u.) for type    1
     new r_m :   0.1687 (alat units)  1.7788 (a.u.) for type    2
     new r_m :   0.1458 (alat units)  1.5374 (a.u.) for type    3
     new r_m :   0.1458 (alat units)  1.5374 (a.u.) for type    4

     Initial potential from superposition of free atoms

     starting charge  281.99969, renormalised to  294.00000

     negative rho (up, down):  1.269E-01 1.269E-01
     Starting wfcs are  204 randomized atomic wfcs

     total cpu time spent up to now is       48.0 secs

     Self-consistent Calculation

     iteration #  1     ecut=    70.00 Ry     beta= 0.20
     CG style diagonalization
     ethr =  1.00E-02,  avg # of iterations =  2.6

     negative rho (up, down):  1.229E-01 1.229E-01

     total cpu time spent up to now is      201.9 secs

     total energy              =   -3189.36806790 Ry
     estimated scf accuracy    <      22.81335634 Ry

     total magnetization       =     0.00 Bohr mag/cell
     absolute magnetization    =    30.54 Bohr mag/cell

     iteration #  2     ecut=    70.00 Ry     beta= 0.20
     CG style diagonalization
     ethr =  7.76E-03,  avg # of iterations =  3.0

     negative rho (up, down):  1.190E-01 1.190E-01

     total cpu time spent up to now is      361.6 secs

     total energy              =   -3192.25418890 Ry
     estimated scf accuracy    <       9.33872157 Ry

     total magnetization       =    -0.00 Bohr mag/cell
     absolute magnetization    =    29.72 Bohr mag/cell

     iteration #  3     ecut=    70.00 Ry     beta= 0.20
     CG style diagonalization
     ethr =  3.18E-03,  avg # of iterations =  3.1

     negative rho (up, down):  1.201E-01 1.201E-01

     total cpu time spent up to now is      527.1 secs

     total energy              =   -3193.77610287 Ry
     estimated scf accuracy    <       4.38691464 Ry

     total magnetization       =    -0.00 Bohr mag/cell
     absolute magnetization    =    28.26 Bohr mag/cell

     iteration #  4     ecut=    70.00 Ry     beta= 0.20
     CG style diagonalization
     ethr =  1.49E-03,  avg # of iterations =  3.2

     negative rho (up, down):  1.183E-01 1.183E-01

     total cpu time spent up to now is      699.8 secs

     total energy              =   -3194.83776434 Ry
     estimated scf accuracy    <       2.34639393 Ry

     total magnetization       =     0.00 Bohr mag/cell
     absolute magnetization    =    29.09 Bohr mag/cell

     iteration #  5     ecut=    70.00 Ry     beta= 0.20
     CG style diagonalization
     ethr =  7.98E-04,  avg # of iterations =  3.1

     negative rho (up, down):  1.183E-01 1.183E-01

     total cpu time spent up to now is      865.0 secs

     total energy              =   -3195.13082795 Ry
     estimated scf accuracy    <       0.14891619 Ry

     total magnetization       =     0.00 Bohr mag/cell
     absolute magnetization    =    27.66 Bohr mag/cell

     iteration #  6     ecut=    70.00 Ry     beta= 0.20
     CG style diagonalization
     c_bands:  3 eigenvalues not converged
     c_bands:  2 eigenvalues not converged
     ethr =  5.07E-05,  avg # of iterations =  4.0

     negative rho (up, down):  1.187E-01 1.186E-01

     total cpu time spent up to now is     1079.5 secs

     total energy              =   -3195.04002336 Ry
     estimated scf accuracy    <       1.15479965 Ry

     total magnetization       =    -0.00 Bohr mag/cell
     absolute magnetization    =    26.04 Bohr mag/cell

     iteration #  7     ecut=    70.00 Ry     beta= 0.20
     CG style diagonalization
     ethr =  5.07E-05,  avg # of iterations =  3.5

     negative rho (up, down):  1.193E-01 1.193E-01

     total cpu time spent up to now is     1263.1 secs

     total energy              =   -3195.11998856 Ry
     estimated scf accuracy    <       0.08189020 Ry

     total magnetization       =     0.00 Bohr mag/cell
     absolute magnetization    =    27.32 Bohr mag/cell

     iteration #  8     ecut=    70.00 Ry     beta= 0.20
     CG style diagonalization
     c_bands:  1 eigenvalues not converged
     ethr =  2.79E-05,  avg # of iterations =  3.4

     negative rho (up, down):  1.194E-01 1.194E-01

     total cpu time spent up to now is     1442.0 secs

     total energy              =   -3195.12461272 Ry
     estimated scf accuracy    <       0.14899053 Ry

     total magnetization       =    -0.00 Bohr mag/cell
     absolute magnetization    =    27.72 Bohr mag/cell

     iteration #  9     ecut=    70.00 Ry     beta= 0.20
     CG style diagonalization
     ethr =  2.79E-05,  avg # of iterations =  3.0

     negative rho (up, down):  1.195E-01 1.195E-01

     total cpu time spent up to now is     1613.3 secs

     total energy              =   -3195.12196205 Ry
     estimated scf accuracy    <       0.04801068 Ry

     total magnetization       =     0.00 Bohr mag/cell
     absolute magnetization    =    27.60 Bohr mag/cell

     iteration # 10     ecut=    70.00 Ry     beta= 0.20
     CG style diagonalization
     ethr =  1.63E-05,  avg # of iterations =  3.0

     negative rho (up, down):  1.196E-01 1.196E-01

     total cpu time spent up to now is     1778.2 secs

     total energy              =   -3195.11999542 Ry
     estimated scf accuracy    <       0.01369271 Ry

     total magnetization       =    -0.00 Bohr mag/cell
     absolute magnetization    =    27.53 Bohr mag/cell

     iteration # 11     ecut=    70.00 Ry     beta= 0.20
     CG style diagonalization
     c_bands:  2 eigenvalues not converged
     c_bands:  1 eigenvalues not converged
     c_bands:  1 eigenvalues not converged
     ethr =  4.66E-06,  avg # of iterations =  3.3

     negative rho (up, down):  1.196E-01 1.196E-01

     total cpu time spent up to now is     1964.0 secs

     total energy              =   -3195.12204845 Ry
     estimated scf accuracy    <       0.00219797 Ry

     total magnetization       =     0.00 Bohr mag/cell
     absolute magnetization    =    27.53 Bohr mag/cell

     iteration # 12     ecut=    70.00 Ry     beta= 0.20
     CG style diagonalization
     c_bands:  2 eigenvalues not converged
     c_bands:  1 eigenvalues not converged
     ethr =  7.48E-07,  avg # of iterations =  3.3

     negative rho (up, down):  1.196E-01 1.196E-01

     total cpu time spent up to now is     2141.1 secs

     total energy              =   -3195.12213312 Ry
     estimated scf accuracy    <       0.00193802 Ry

     total magnetization       =    -0.00 Bohr mag/cell
     absolute magnetization    =    27.52 Bohr mag/cell

     iteration # 13     ecut=    70.00 Ry     beta= 0.20
     CG style diagonalization
     c_bands:  1 eigenvalues not converged
     ethr =  6.59E-07,  avg # of iterations =  3.1

     negative rho (up, down):  1.195E-01 1.195E-01

     Magnetic moment per site:
     atom:    1    charge:   12.9913    magn:   -3.7196    constr:    0.0000
     atom:    2    charge:   13.0025    magn:   -3.6016    constr:    0.0000
     atom:    3    charge:   13.0157    magn:   -3.5932    constr:    0.0000
     atom:    4    charge:   13.0157    magn:    3.5931    constr:    0.0000
     atom:    5    charge:   12.9917    magn:    3.7196    constr:    0.0000
     atom:    6    charge:   13.0017    magn:    3.6023    constr:    0.0000
     atom:    7    charge:   10.4956    magn:   -0.0156    constr:    0.0000
     atom:    8    charge:   10.4946    magn:   -0.0123    constr:    0.0000
     atom:    9    charge:   10.4947    magn:    0.0123    constr:    0.0000
     atom:   10    charge:   10.4946    magn:   -0.0042    constr:    0.0000
     atom:   11    charge:   10.4946    magn:    0.0041    constr:    0.0000
     atom:   12    charge:   10.4957    magn:    0.0156    constr:    0.0000
     atom:   13    charge:    5.3951    magn:   -0.2077    constr:    0.0000
     atom:   14    charge:    5.3951    magn:   -0.2077    constr:    0.0000
     atom:   15    charge:    5.3951    magn:   -0.2077    constr:    0.0000
     atom:   16    charge:    5.3940    magn:   -0.2194    constr:    0.0000
     atom:   17    charge:    5.3940    magn:   -0.2194    constr:    0.0000
     atom:   18    charge:    5.3940    magn:   -0.2194    constr:    0.0000
     atom:   19    charge:    5.3947    magn:    0.2192    constr:    0.0000
     atom:   20    charge:    5.3947    magn:    0.2192    constr:    0.0000
     atom:   21    charge:    5.3947    magn:    0.2192    constr:    0.0000
     atom:   22    charge:    5.3857    magn:    0.0656    constr:    0.0000
     atom:   23    charge:    5.3857    magn:    0.0656    constr:    0.0000
     atom:   24    charge:    5.3857    magn:    0.0656    constr:    0.0000
     atom:   25    charge:    5.3854    magn:   -0.0656    constr:    0.0000
     atom:   26    charge:    5.3854    magn:   -0.0656    constr:    0.0000
     atom:   27    charge:    5.3854    magn:   -0.0656    constr:    0.0000
     atom:   28    charge:    5.3957    magn:    0.2076    constr:    0.0000
     atom:   29    charge:    5.3957    magn:    0.2076    constr:    0.0000
     atom:   30    charge:    5.3957    magn:    0.2076    constr:    0.0000

     total cpu time spent up to now is     2307.6 secs

     End of self-consistent calculation

 ------ SPIN UP ------------


          k = 0.0000 0.0000 0.0000 ( 24989 PWs)   bands (ev):

   -79.2265 -79.0234 -78.9415 -74.2819 -74.2218 -74.1530 -45.2424 -45.1892
   -45.1892 -45.0122 -45.0122 -45.0100 -44.9950 -44.8895 -44.8895 -40.4300
   -40.3805 -40.3805 -40.3605 -40.3251 -40.3251 -40.3122 -40.2531 -40.2531
   -11.2504 -11.2504 -11.2149 -11.2148 -11.1922 -11.1922 -11.1661 -11.1482
   -11.1417 -11.1417 -11.1379 -11.1379 -11.1251 -11.1251 -11.1033 -11.0895
   -11.0817 -11.0817 -11.0744 -11.0744 -11.0696 -11.0696 -11.0619 -11.0558
   -11.0558 -11.0457 -11.0333 -11.0333 -11.0169 -11.0169  -7.8874  -7.5061
    -7.4150  -6.6439  -6.5898  -6.1839  -6.1838  -6.0648  -6.0561  -6.0561
    -5.9628  -5.9628  -5.8633  -5.8632  -5.7139  -5.7138  -5.5440  -5.5439
     0.8321   1.0751   1.1531   1.9305   2.0659   2.8219   4.9547   4.9547
     5.0461   5.4574   5.4574   5.5325   5.5683   5.5683   5.7192   5.7705
     5.7705   5.9594   6.0350   6.0350   6.2299   6.2300   6.2700   6.4259
     6.4260   6.4288   6.5224   6.7441   6.7441   7.0558   7.0559   7.1850
     7.3431   7.6305   7.6306   7.7571   7.8762   7.8762   7.9931   7.9931
     8.1789   8.3375   8.3549   8.3549   8.5304   8.5330   8.5331   8.6610
     8.6843   8.6843   8.8263   8.8264   8.9775   8.9775   9.3279   9.3279
     9.3534   9.3696   9.3697   9.4385   9.4386   9.7830   9.7830  10.1134
    10.2531  10.2531  10.2675  10.4457  10.5421  10.6763  10.7411  10.9682
    10.9683  11.6222  11.6223  12.1327  12.1327  12.3419  12.3483  12.3483
    12.3992  12.4572  12.4936  12.4936  13.3196  13.3196  13.9566  13.9566
    14.5006  14.5006  15.0717  15.1944  15.2961  15.3468  16.3902  16.3903
    16.5206  16.5206  16.5593  16.5593  16.8606  16.9021  17.1075  17.1075
    17.1872  17.1872  17.5984  17.5984  18.2914  19.5789  19.7952  19.9720
    20.6919  20.6919  20.9552  21.0387  21.6872  21.6873  21.7979  21.7980
    22.1218  22.1218  22.8305  22.9840  23.0339  23.0357  23.1864  23.6850

     occupation numbers 
     1.0000   1.0000   1.0000   1.0000   1.0000   1.0000   1.0000   1.0000
     1.0000   1.0000   1.0000   1.0000   1.0000   1.0000   1.0000   1.0000
     1.0000   1.0000   1.0000   1.0000   1.0000   1.0000   1.0000   1.0000
     1.0000   1.0000   1.0000   1.0000   1.0000   1.0000   1.0000   1.0000
     1.0000   1.0000   1.0000   1.0000   1.0000   1.0000   1.0000   1.0000
     1.0000   1.0000   1.0000   1.0000   1.0000   1.0000   1.0000   1.0000
     1.0000   1.0000   1.0000   1.0000   1.0000   1.0000   1.0000   1.0000
     1.0000   1.0000   1.0000   1.0000   1.0000   1.0000   1.0000   1.0000
     1.0000   1.0000   1.0000   1.0000   1.0000   1.0000   1.0000   1.0000
     1.0000   1.0000   1.0000   1.0000   1.0000   1.0000   1.0000   1.0000
     1.0000   1.0000   1.0000   1.0000   1.0000   1.0000   1.0000   1.0000
     1.0000   1.0000   1.0000   1.0000   1.0000   1.0000   1.0000   1.0000
     1.0000   1.0000   1.0000   1.0000   1.0000   1.0000   1.0000   1.0000
     1.0000   1.0000   1.0000   1.0000   1.0000   1.0000   1.0000   1.0000
     1.0000   1.0000   1.0000   1.0000   1.0000   1.0000   1.0000   1.0000
     1.0000   1.0000   1.0000   1.0000   1.0000   1.0000   1.0000   1.0000
     1.0000   1.0000   1.0000   1.0000   1.0000   1.0000   1.0000   1.0000
     1.0000   1.0000   1.0000   1.0000   1.0000   1.0000   1.0000   1.0000
     1.0000   0.9906   0.9906   0.0016   0.0016   0.0000   0.0000   0.0000
     0.0000   0.0000   0.0000   0.0000   0.0000   0.0000   0.0000   0.0000
     0.0000   0.0000   0.0000   0.0000   0.0000   0.0000   0.0000   0.0000
     0.0000   0.0000   0.0000   0.0000   0.0000   0.0000   0.0000   0.0000
     0.0000   0.0000   0.0000   0.0000   0.0000   0.0000   0.0000   0.0000
     0.0000   0.0000   0.0000   0.0000   0.0000   0.0000   0.0000   0.0000
     0.0000   0.0000   0.0000   0.0000   0.0000   0.0000   0.0000   0.0000

          k = 0.0000-0.5774 0.0000 ( 25062 PWs)   bands (ev):

   -79.2265 -79.0234 -78.9415 -74.2819 -74.2218 -74.1530 -45.2424 -45.1892
   -45.1892 -45.0122 -45.0122 -45.0100 -44.9950 -44.8895 -44.8895 -40.4300
   -40.3805 -40.3805 -40.3605 -40.3251 -40.3251 -40.3122 -40.2531 -40.2531
   -11.2460 -11.2152 -11.2020 -11.1924 -11.1858 -11.1800 -11.1694 -11.1569
   -11.1418 -11.1369 -11.1307 -11.1272 -11.1172 -11.1148 -11.1093 -11.0987
   -11.0901 -11.0876 -11.0805 -11.0761 -11.0739 -11.0727 -11.0694 -11.0607
   -11.0579 -11.0489 -11.0440 -11.0367 -11.0326 -11.0201  -7.2319  -7.1903
    -7.0210  -6.8543  -6.8147  -6.4406  -6.4182  -6.3149  -6.1765  -6.0961
    -6.0631  -6.0359  -5.9679  -5.8961  -5.7886  -5.7443  -5.6531  -5.5642
     1.0172   1.2418   1.2630   1.5594   1.6221   1.8366   5.0573   5.3389
     5.3849   5.5043   5.6895   5.7020   5.8080   5.8413   5.8691   6.0336
     6.0657   6.1205   6.2282   6.2973   6.4979   6.5850   6.6539   6.7419
     6.7769   6.8303   6.9993   7.0640   7.1696   7.2294   7.2736   7.4035
     7.4741   7.5270   7.6491   7.7342   7.7854   7.8146   7.9100   7.9518
     8.0759   8.1634   8.2070   8.2879   8.3535   8.3841   8.4890   8.5233
     8.5760   8.6456   8.7200   8.7830   8.9526   9.0846   9.1021   9.1441
     9.2002   9.2410   9.2760   9.3877   9.4290   9.5100   9.5682   9.8757
    10.0682  10.1961  10.3777  10.4077  10.4615  10.6239  10.8992  10.9432
    11.0511  11.0867  11.5567  12.0907  12.1612  12.2784  12.3357  12.3771
    12.4415  12.4933  12.6733  12.7556  13.3628  13.4442  13.6229  13.8009
    13.8839  14.3876  14.5970  15.1363  15.1797  15.3707  15.4501  15.4816
    15.5279  15.5708  15.6506  16.6461  16.6934  16.7743  16.8427  16.9332
    16.9942  17.0628  17.1260  17.2042  20.0219  20.1949  20.4701  20.9848
    21.1204  21.2077  21.6945  21.8415  21.9744  22.2847  22.3227  22.3437
    22.4647  22.5112  22.8299  22.8885  23.1100  23.1774  23.2349  23.2904

     occupation numbers 
     1.0000   1.0000   1.0000   1.0000   1.0000   1.0000   1.0000   1.0000
     1.0000   1.0000   1.0000   1.0000   1.0000   1.0000   1.0000   1.0000
     1.0000   1.0000   1.0000   1.0000   1.0000   1.0000   1.0000   1.0000
     1.0000   1.0000   1.0000   1.0000   1.0000   1.0000   1.0000   1.0000
     1.0000   1.0000   1.0000   1.0000   1.0000   1.0000   1.0000   1.0000
     1.0000   1.0000   1.0000   1.0000   1.0000   1.0000   1.0000   1.0000
     1.0000   1.0000   1.0000   1.0000   1.0000   1.0000   1.0000   1.0000
     1.0000   1.0000   1.0000   1.0000   1.0000   1.0000   1.0000   1.0000
     1.0000   1.0000   1.0000   1.0000   1.0000   1.0000   1.0000   1.0000
     1.0000   1.0000   1.0000   1.0000   1.0000   1.0000   1.0000   1.0000
     1.0000   1.0000   1.0000   1.0000   1.0000   1.0000   1.0000   1.0000
     1.0000   1.0000   1.0000   1.0000   1.0000   1.0000   1.0000   1.0000
     1.0000   1.0000   1.0000   1.0000   1.0000   1.0000   1.0000   1.0000
     1.0000   1.0000   1.0000   1.0000   1.0000   1.0000   1.0000   1.0000
     1.0000   1.0000   1.0000   1.0000   1.0000   1.0000   1.0000   1.0000
     1.0000   1.0000   1.0000   1.0000   1.0000   1.0000   1.0000   1.0000
     1.0000   1.0000   1.0000   1.0000   1.0000   1.0000   1.0000   1.0000
     1.0000   1.0000   1.0000   1.0000   1.0000   1.0000   1.0000   1.0000
     1.0000   1.0000   0.9988   0.0059   0.0006   0.0000   0.0000   0.0000
     0.0000   0.0000   0.0000   0.0000   0.0000   0.0000   0.0000   0.0000
     0.0000   0.0000   0.0000   0.0000   0.0000   0.0000   0.0000   0.0000
     0.0000   0.0000   0.0000   0.0000   0.0000   0.0000   0.0000   0.0000
     0.0000   0.0000   0.0000   0.0000   0.0000   0.0000   0.0000   0.0000
     0.0000   0.0000   0.0000   0.0000   0.0000   0.0000   0.0000   0.0000
     0.0000   0.0000   0.0000   0.0000   0.0000   0.0000   0.0000   0.0000

 ------ SPIN DOWN ----------


          k = 0.0000 0.0000 0.0000 ( 24989 PWs)   bands (ev):

   -79.2216 -79.0258 -78.9394 -74.2871 -74.2196 -74.1561 -45.2376 -45.1841
   -45.1841 -45.0144 -45.0144 -45.0080 -44.9971 -44.8871 -44.8871 -40.4351
   -40.3858 -40.3858 -40.3585 -40.3231 -40.3231 -40.3153 -40.2563 -40.2563
   -11.2487 -11.2487 -11.2156 -11.2156 -11.1924 -11.1924 -11.1611 -11.1529
   -11.1407 -11.1407 -11.1354 -11.1354 -11.1286 -11.1286 -11.1027 -11.0897
   -11.0812 -11.0812 -11.0726 -11.0726 -11.0696 -11.0696 -11.0590 -11.0579
   -11.0579 -11.0490 -11.0309 -11.0309 -11.0198 -11.0198  -7.8849  -7.5053
    -7.4168  -6.6424  -6.5905  -6.1786  -6.1785  -6.0672  -6.0540  -6.0540
    -5.9621  -5.9621  -5.8618  -5.8618  -5.7188  -5.7188  -5.5489  -5.5489
     0.8333   1.0741   1.1534   1.9303   2.0662   2.8214   4.9574   4.9575
     5.0488   5.4591   5.4591   5.5337   5.5685   5.5685   5.7183   5.7721
     5.7721   5.9612   6.0349   6.0349   6.2294   6.2295   6.2713   6.4272
     6.4278   6.4278   6.5199   6.7422   6.7422   7.0576   7.0576   7.1857
     7.3434   7.6275   7.6276   7.7578   7.8750   7.8751   7.9946   7.9946
     8.1780   8.3404   8.3557   8.3557   8.5309   8.5329   8.5330   8.6602
     8.6855   8.6855   8.8265   8.8265   8.9754   8.9755   9.3286   9.3287
     9.3543   9.3698   9.3698   9.4390   9.4391   9.7810   9.7810  10.1127
    10.2562  10.2562  10.2679  10.4418  10.5435  10.6764  10.7431  10.9704
    10.9704  11.6258  11.6259  12.1290  12.1290  12.3379  12.3474  12.3474
    12.3991  12.4538  12.4907  12.4907  13.3164  13.3164  13.9549  13.9549
    14.4974  14.4974  15.0741  15.1948  15.2954  15.3453  16.3931  16.3931
    16.5191  16.5191  16.5589  16.5590  16.8602  16.9020  17.1073  17.1073
    17.1879  17.1879  17.5966  17.5966  18.2937  19.5802  19.7963  19.9705
    20.6932  20.6932  20.9542  21.0375  21.6878  21.6878  21.7970  21.7970
    22.1224  22.1225  22.8328  22.9883  23.0331  23.0347  23.1860  23.2143

     occupation numbers 
     1.0000   1.0000   1.0000   1.0000   1.0000   1.0000   1.0000   1.0000
     1.0000   1.0000   1.0000   1.0000   1.0000   1.0000   1.0000   1.0000
     1.0000   1.0000   1.0000   1.0000   1.0000   1.0000   1.0000   1.0000
     1.0000   1.0000   1.0000   1.0000   1.0000   1.0000   1.0000   1.0000
     1.0000   1.0000   1.0000   1.0000   1.0000   1.0000   1.0000   1.0000
     1.0000   1.0000   1.0000   1.0000   1.0000   1.0000   1.0000   1.0000
     1.0000   1.0000   1.0000   1.0000   1.0000   1.0000   1.0000   1.0000
     1.0000   1.0000   1.0000   1.0000   1.0000   1.0000   1.0000   1.0000
     1.0000   1.0000   1.0000   1.0000   1.0000   1.0000   1.0000   1.0000
     1.0000   1.0000   1.0000   1.0000   1.0000   1.0000   1.0000   1.0000
     1.0000   1.0000   1.0000   1.0000   1.0000   1.0000   1.0000   1.0000
     1.0000   1.0000   1.0000   1.0000   1.0000   1.0000   1.0000   1.0000
     1.0000   1.0000   1.0000   1.0000   1.0000   1.0000   1.0000   1.0000
     1.0000   1.0000   1.0000   1.0000   1.0000   1.0000   1.0000   1.0000
     1.0000   1.0000   1.0000   1.0000   1.0000   1.0000   1.0000   1.0000
     1.0000   1.0000   1.0000   1.0000   1.0000   1.0000   1.0000   1.0000
     1.0000   1.0000   1.0000   1.0000   1.0000   1.0000   1.0000   1.0000
     1.0000   1.0000   1.0000   1.0000   1.0000   1.0000   1.0000   1.0000
     1.0000   0.9896   0.9896   0.0018   0.0018   0.0000   0.0000   0.0000
     0.0000   0.0000   0.0000   0.0000   0.0000   0.0000   0.0000   0.0000
     0.0000   0.0000   0.0000   0.0000   0.0000   0.0000   0.0000   0.0000
     0.0000   0.0000   0.0000   0.0000   0.0000   0.0000   0.0000   0.0000
     0.0000   0.0000   0.0000   0.0000   0.0000   0.0000   0.0000   0.0000
     0.0000   0.0000   0.0000   0.0000   0.0000   0.0000   0.0000   0.0000
     0.0000   0.0000   0.0000   0.0000   0.0000   0.0000   0.0000   0.0000

          k = 0.0000-0.5774 0.0000 ( 25062 PWs)   bands (ev):

   -79.2216 -79.0258 -78.9394 -74.2871 -74.2196 -74.1561 -45.2376 -45.1841
   -45.1841 -45.0144 -45.0144 -45.0080 -44.9971 -44.8871 -44.8871 -40.4351
   -40.3859 -40.3858 -40.3585 -40.3231 -40.3231 -40.3153 -40.2563 -40.2563
   -11.2441 -11.2161 -11.1976 -11.1927 -11.1887 -11.1787 -11.1697 -11.1577
   -11.1408 -11.1388 -11.1274 -11.1240 -11.1195 -11.1160 -11.1086 -11.1023
   -11.0894 -11.0868 -11.0809 -11.0757 -11.0748 -11.0723 -11.0688 -11.0596
   -11.0566 -11.0483 -11.0445 -11.0374 -11.0340 -11.0231  -7.2273  -7.1881
    -7.0224  -6.8540  -6.8170  -6.4405  -6.4175  -6.3106  -6.1754  -6.0958
    -6.0600  -6.0347  -5.9683  -5.8939  -5.7924  -5.7484  -5.6572  -5.5690
     1.0190   1.2409   1.2633   1.5592   1.6229   1.8348   5.0610   5.3413
     5.3887   5.5078   5.6894   5.7025   5.8101   5.8409   5.8689   6.0338
     6.0669   6.1205   6.2295   6.2952   6.4984   6.5846   6.6553   6.7432
     6.7756   6.8293   7.0001   7.0644   7.1699   7.2295   7.2745   7.4040
     7.4743   7.5278   7.6485   7.7335   7.7858   7.8143   7.9088   7.9485
     8.0763   8.1626   8.2064   8.2886   8.3535   8.3850   8.4891   8.5243
     8.5757   8.6459   8.7203   8.7822   8.9522   9.0831   9.1032   9.1428
     9.2004   9.2401   9.2737   9.3869   9.4298   9.5113   9.5699   9.8779
    10.0661  10.1955  10.3797  10.4083  10.4626  10.6245  10.9029  10.9454
    11.0520  11.0901  11.5601  12.0872  12.1578  12.2737  12.3343  12.3758
    12.4409  12.4911  12.6712  12.7521  13.3596  13.4427  13.6190  13.7994
    13.8819  14.3847  14.5977  15.1376  15.1812  15.3705  15.4498  15.4820
    15.5286  15.5687  15.6491  16.6481  16.6927  16.7728  16.8431  16.9325
    16.9969  17.0660  17.1229  17.2004  20.0268  20.1979  20.4730  20.9826
    21.1163  21.2054  21.6953  21.8416  21.9754  22.2849  22.3262  22.3440
    22.4649  22.5073  22.8308  22.8892  23.1118  23.1777  23.2362  23.2896

     occupation numbers 
     1.0000   1.0000   1.0000   1.0000   1.0000   1.0000   1.0000   1.0000
     1.0000   1.0000   1.0000   1.0000   1.0000   1.0000   1.0000   1.0000
     1.0000   1.0000   1.0000   1.0000   1.0000   1.0000   1.0000   1.0000
     1.0000   1.0000   1.0000   1.0000   1.0000   1.0000   1.0000   1.0000
     1.0000   1.0000   1.0000   1.0000   1.0000   1.0000   1.0000   1.0000
     1.0000   1.0000   1.0000   1.0000   1.0000   1.0000   1.0000   1.0000
     1.0000   1.0000   1.0000   1.0000   1.0000   1.0000   1.0000   1.0000
     1.0000   1.0000   1.0000   1.0000   1.0000   1.0000   1.0000   1.0000
     1.0000   1.0000   1.0000   1.0000   1.0000   1.0000   1.0000   1.0000
     1.0000   1.0000   1.0000   1.0000   1.0000   1.0000   1.0000   1.0000
     1.0000   1.0000   1.0000   1.0000   1.0000   1.0000   1.0000   1.0000
     1.0000   1.0000   1.0000   1.0000   1.0000   1.0000   1.0000   1.0000
     1.0000   1.0000   1.0000   1.0000   1.0000   1.0000   1.0000   1.0000
     1.0000   1.0000   1.0000   1.0000   1.0000   1.0000   1.0000   1.0000
     1.0000   1.0000   1.0000   1.0000   1.0000   1.0000   1.0000   1.0000
     1.0000   1.0000   1.0000   1.0000   1.0000   1.0000   1.0000   1.0000
     1.0000   1.0000   1.0000   1.0000   1.0000   1.0000   1.0000   1.0000
     1.0000   1.0000   1.0000   1.0000   1.0000   1.0000   1.0000   1.0000
     1.0000   1.0000   0.9986   0.0065   0.0006   0.0000   0.0000   0.0000
     0.0000   0.0000   0.0000   0.0000   0.0000   0.0000   0.0000   0.0000
     0.0000   0.0000   0.0000   0.0000   0.0000   0.0000   0.0000   0.0000
     0.0000   0.0000   0.0000   0.0000   0.0000   0.0000   0.0000   0.0000
     0.0000   0.0000   0.0000   0.0000   0.0000   0.0000   0.0000   0.0000
     0.0000   0.0000   0.0000   0.0000   0.0000   0.0000   0.0000   0.0000
     0.0000   0.0000   0.0000   0.0000   0.0000   0.0000   0.0000   0.0000

     the Fermi energy is    11.8482 ev

!    total energy              =   -3195.12247168 Ry
     estimated scf accuracy    <       0.00028988 Ry
     smearing contrib. (-TS)   =      -0.00047803 Ry
     internal energy E=F+TS    =   -3195.12199366 Ry

     The total energy is F=E-TS. E is the sum of the following terms:
     one-electron contribution =   -1315.72534751 Ry
     hartree contribution      =     843.47977769 Ry
     xc contribution           =    -695.22729467 Ry
     ewald contribution        =   -2027.64912917 Ry

     total magnetization       =    -0.00 Bohr mag/cell
     absolute magnetization    =    27.56 Bohr mag/cell

     convergence has been achieved in  13 iterations

     Writing output data file /home/aldair1809/Documentos/QE/4BFO/UHUBBARD/temp/ecut_ecutwfc_70.in/bifeo3-scf.save/

     init_run     :     46.43s CPU     47.65s WALL (       1 calls)
     electrons    :   2229.60s CPU   2259.55s WALL (       1 calls)

     Called by init_run:
     wfcinit      :     41.03s CPU     41.62s WALL (       1 calls)
     wfcinit:atom :      0.05s CPU      0.12s WALL (       4 calls)
     wfcinit:wfcr :     40.54s CPU     40.90s WALL (       4 calls)
     potinit      :      1.24s CPU      1.31s WALL (       1 calls)
     hinit0       :      2.28s CPU      2.30s WALL (       1 calls)

     Called by electrons:
     c_bands      :   2001.89s CPU   2017.21s WALL (      13 calls)
     sum_band     :    198.88s CPU    206.86s WALL (      13 calls)
     v_of_rho     :      4.38s CPU      4.57s WALL (      14 calls)
     v_h          :      0.16s CPU      0.18s WALL (      14 calls)
     v_xc         :      4.21s CPU      4.40s WALL (      14 calls)
     newd         :     25.33s CPU     32.31s WALL (      14 calls)
     mix_rho      :      1.06s CPU      1.08s WALL (      13 calls)

     Called by c_bands:
     init_us_2    :      2.94s CPU      2.99s WALL (     108 calls)
     ccgdiagg     :   1516.96s CPU   1529.63s WALL (      52 calls)
     wfcrot       :    522.81s CPU    525.83s WALL (      52 calls)

     Called by sum_band:
     sum_band:wei :      0.01s CPU      0.01s WALL (      13 calls)
     sum_band:loo :    153.51s CPU    155.00s WALL (      13 calls)
     sum_band:buf :      0.59s CPU      0.59s WALL (      52 calls)
     sum_band:ini :      1.41s CPU      1.41s WALL (      52 calls)
     sum_band:cal :     93.86s CPU     93.92s WALL (      52 calls)
     sum_band:bec :      0.26s CPU      0.26s WALL (      52 calls)
     addusdens    :     44.39s CPU     50.81s WALL (      13 calls)
     addusd:skk   :      0.11s CPU      0.13s WALL (      52 calls)
     addusd:dgemm :     24.39s CPU     29.59s WALL (     104 calls)
     addusd:qvan2 :     19.53s CPU     19.54s WALL (     104 calls)

     Called by *cgdiagg:
     h_psi        :    988.32s CPU   1001.62s WALL (   23730 calls)
     s_psi        :    550.91s CPU    551.67s WALL (   47408 calls)

     Called by h_psi:
     h_psi:calbec :    319.40s CPU    320.93s WALL (   23730 calls)
     vloc_psi     :    342.10s CPU    353.60s WALL (   23730 calls)
     add_vuspsi   :    325.41s CPU    325.74s WALL (   23730 calls)
     hs_1psi      :    910.81s CPU    921.61s WALL (   23678 calls)
     s_1psi       :    448.24s CPU    449.49s WALL (   23678 calls)

     General routines
     calbec       :    635.70s CPU    638.34s WALL (   47460 calls)
     fft          :      2.52s CPU      2.70s WALL (     292 calls)
     ffts         :      0.24s CPU      0.26s WALL (      26 calls)
     fftw         :    333.12s CPU    344.44s WALL (   78588 calls)

     Parallel routines
     fft_scatt_xy :     89.23s CPU     89.89s WALL (   78906 calls)
     fft_scatt_yz :     35.44s CPU     41.13s WALL (   78906 calls)

     PWSCF        :  37m56.60s CPU  38m28.30s WALL


   This run was terminated on:  16:25:13  29Sep2024            

=------------------------------------------------------------------------------=
   JOB DONE.
=------------------------------------------------------------------------------=
