
     Program PWSCF v.6.7MaX starts on 29Sep2024 at 13:42:12 

     This program is part of the open-source Quantum ESPRESSO suite
     for quantum simulation of materials; please cite
         "P. Giannozzi et al., J. Phys.:Condens. Matter 21 395502 (2009);
         "P. Giannozzi et al., J. Phys.:Condens. Matter 29 465901 (2017);
          URL http://www.quantum-espresso.org", 
     in publications or presentations arising from this work. More details at
     http://www.quantum-espresso.org/quote

     Parallel version (MPI), running on     4 processors

     MPI processes distributed on     1 nodes
     R & G space division:  proc/nbgrp/npool/nimage =       4
     Waiting for input...
     Reading input from standard input

     Current dimensions of program PWSCF are:
     Max number of different atomic species (ntypx) = 10
     Max number of k-points (npk) =  40000
     Max angular momentum in pseudopotentials (lmaxx) =  3
     Message from routine iosys:
     wrong startingpot: use default (1)

     Subspace diagonalization in iterative solution of the eigenvalue problem:
     one sub-group per band group will be used
     scalapack distributed-memory algorithm (size of sub-group:  2*  2 procs)

     Message from routine setup:
     using ibrav=0 with symmetry is DISCOURAGED, use correct ibrav instead

     Parallelization info
     --------------------
     sticks:   dense  smooth     PW     G-vecs:    dense   smooth      PW
     Min         382     382    105                30284    30284    4375
     Max         383     383    106                30289    30289    4386
     Sum        1531    1531    421               121145   121145   17511



     bravais-lattice index     =            0
     lattice parameter (alat)  =      10.5468  a.u.
     unit-cell volume          =    2535.5110 (a.u.)^3
     number of atoms/cell      =           30
     number of atomic types    =            4
     number of electrons       =       294.00
     number of Kohn-Sham states=          200
     kinetic-energy cutoff     =      50.0000  Ry
     charge density cutoff     =     200.0000  Ry
     scf convergence threshold =      1.0E-03
     mixing beta               =       0.2000
     number of iterations used =            8  plain     mixing
     Exchange-correlation=  SLA  PW   PBX  PBC
                           (   1   4   3   4   0   0   0)

     celldm(1)=  10.546849  celldm(2)=   0.000000  celldm(3)=   0.000000
     celldm(4)=   0.000000  celldm(5)=   0.000000  celldm(6)=   0.000000

     crystal axes: (cart. coord. in units of alat)
               a(1) = (   1.000000  -0.000000  -0.000000 )  
               a(2) = (  -0.500000   0.866025  -0.000000 )  
               a(3) = (   0.000000  -0.000000   2.495552 )  

     reciprocal axes: (cart. coord. in units 2 pi/alat)
               b(1) = (  1.000000  0.577350  0.000000 )  
               b(2) = (  0.000000  1.154701  0.000000 )  
               b(3) = (  0.000000  0.000000  0.400713 )  


     PseudoPot. # 1 for O  read from file:
     /home/aldair1809/Programas/QE/q-e-qe-7.3/pseudo/o_pbe_v1.2.uspp.F.UPF
     MD5 check sum: 734c27235a0248c51dbae37a1fbe46ec
     Pseudo is Ultrasoft + core correction, Zval =  6.0
     Generated by new atomic code, or converted to UPF format
     Using radial grid of  737 points,  5 beta functions with: 
                l(1) =   0
                l(2) =   0
                l(3) =   1
                l(4) =   1
                l(5) =   2
     Q(r) pseudized with  8 coefficients,  rinner =    0.900   0.900   0.900
                                                       0.900   0.900

     PseudoPot. # 2 for Bi read from file:
     /home/aldair1809/Programas/QE/q-e-qe-7.3/pseudo/bi_pbe_v1.uspp.F.UPF
     MD5 check sum: cceb9f28ec65b6d7ff33140f5b0b1758
     Pseudo is Ultrasoft + core correction, Zval = 15.0
     Generated by new atomic code, or converted to UPF format
     Using radial grid of  899 points,  6 beta functions with: 
                l(1) =   0
                l(2) =   0
                l(3) =   1
                l(4) =   1
                l(5) =   2
                l(6) =   2
     Q(r) pseudized with  6 coefficients,  rinner =    1.000   1.000   1.000
                                                       1.000   1.000

     PseudoPot. # 3 for Fe read from file:
     /home/aldair1809/Programas/QE/q-e-qe-7.3/pseudo/fe_pbe_v1.5.uspp.F.UPF
     MD5 check sum: a130daea23fe5165f5d574ae7f82ed95
     Pseudo is Ultrasoft + core correction, Zval = 16.0
     Generated by new atomic code, or converted to UPF format
     Using radial grid of  861 points,  6 beta functions with: 
                l(1) =   0
                l(2) =   0
                l(3) =   1
                l(4) =   1
                l(5) =   2
                l(6) =   2
     Q(r) pseudized with  8 coefficients,  rinner =    1.000   1.000   1.000
                                                       1.000   1.000

     PseudoPot. # 4 for Fe read from file:
     /home/aldair1809/Programas/QE/q-e-qe-7.3/pseudo/fe_pbe_v1.5.uspp.F.UPF
     MD5 check sum: a130daea23fe5165f5d574ae7f82ed95
     Pseudo is Ultrasoft + core correction, Zval = 16.0
     Generated by new atomic code, or converted to UPF format
     Using radial grid of  861 points,  6 beta functions with: 
                l(1) =   0
                l(2) =   0
                l(3) =   1
                l(4) =   1
                l(5) =   2
                l(6) =   2
     Q(r) pseudized with  8 coefficients,  rinner =    1.000   1.000   1.000
                                                       1.000   1.000

     atomic species   valence    mass     pseudopotential
        O              6.00    15.99940     O ( 1.00)
        Bi            15.00   208.98040     Bi( 1.00)
        Fe1           16.00    55.84500     Fe( 1.00)
        Fe2           16.00    55.84500     Fe( 1.00)

     Starting magnetic structure 
     atomic species   magnetization
        O            0.000
        Bi           0.000
        Fe1         -0.800
        Fe2          0.800

      3 Sym. Ops. (no inversion) found


                                    s                        frac. trans.

      isym =  1     identity                                     

 cryst.   s( 1) = (     1          0          0      )
                  (     0          1          0      )
                  (     0          0          1      )

 cart.    s( 1) = (  1.0000000 -0.0000000  0.0000000 )
                  (  0.0000000  1.0000000  0.0000000 )
                  (  0.0000000  0.0000000  1.0000000 )


      isym =  2     120 deg rotation - cryst. axis [0,0,1]       

 cryst.   s( 2) = (     0          1          0      )
                  (    -1         -1          0      )
                  (     0          0          1      )

 cart.    s( 2) = ( -0.5000000 -0.8660254  0.0000000 )
                  (  0.8660254 -0.5000000  0.0000000 )
                  (  0.0000000  0.0000000  1.0000000 )


      isym =  3     120 deg rotation - cryst. axis [0,0,-1]      

 cryst.   s( 3) = (    -1         -1          0      )
                  (     1          0          0      )
                  (     0          0          1      )

 cart.    s( 3) = ( -0.5000000  0.8660254  0.0000000 )
                  ( -0.8660254 -0.5000000  0.0000000 )
                  (  0.0000000  0.0000000  1.0000000 )


   Cartesian axes

     site n.     atom                  positions (alat units)
         1           Fe1 tau(   1) = (   0.0000000   0.0000000   1.9384582  )
         2           Fe1 tau(   2) = (  -0.0000005   0.5773506   2.3615556  )
         3           Fe1 tau(   3) = (   0.5000005   0.2886748   1.5200787  )
         4           Fe2 tau(   4) = (   0.5000005   0.2886748   0.2722626  )
         5           Fe2 tau(   5) = (   0.0000000   0.0000000   0.6907071  )
         6           Fe2 tau(   6) = (  -0.0000005   0.5773506   1.1137452  )
         7           Bi  tau(   7) = (   0.5000005   0.2886748   2.0843143  )
         8           Bi  tau(   8) = (  -0.0000005   0.5773506   1.6713980  )
         9           Bi  tau(   9) = (  -0.0000005   0.5773506   0.4235448  )
        10           Bi  tau(  10) = (   0.0000000   0.0000000   0.0002821  )
        11           Bi  tau(  11) = (   0.0000000   0.0000000   1.2481025  )
        12           Bi  tau(  12) = (   0.5000005   0.2886748   0.8364865  )
        13           O   tau(  13) = (  -0.3105904   0.6551932   2.2011299  )
        14           O   tau(  14) = (   0.0878817   0.2694488   2.2011299  )
        15           O   tau(  15) = (   0.2227102   0.8074080   2.2011299  )
        16           O   tau(  16) = (   0.4087504   0.5589755   1.7846473  )
        17           O   tau(  17) = (   0.3115373   0.0745013   1.7846473  )
        18           O   tau(  18) = (   0.7797108   0.2325494   1.7846473  )
        19           O   tau(  19) = (   0.6884743   0.0745026   0.5368244  )
        20           O   tau(  20) = (   0.5912412   0.5589858   0.5368244  )
        21           O   tau(  21) = (   0.2202830   0.2325379   0.5368244  )
        22           O   tau(  22) = (  -0.0823010   0.8482993   0.1166193  )
        23           O   tau(  23) = (  -0.1934983   0.3706010   0.1166193  )
        24           O   tau(  24) = (   0.2757993   0.5131505   0.1166193  )
        25           O   tau(  25) = (   0.1934855   0.3705936   1.3644430  )
        26           O   tau(  26) = (   0.0823138   0.8482919   1.3644430  )
        27           O   tau(  27) = (  -0.2757993   0.5131653   1.3644430  )
        28           O   tau(  28) = (  -0.0878870   0.2694458   0.9533686  )
        29           O   tau(  29) = (   0.3105971   0.6551893   0.9533686  )
        30           O   tau(  30) = (  -0.2227086   0.8074149   0.9533686  )

   Crystallographic axes

     site n.     atom                  positions (cryst. coord.)
         1           Fe1 tau(   1) = (  0.0000000  0.0000000  0.7767652  )
         2           Fe1 tau(   2) = (  0.3333330  0.6666670  0.9463058  )
         3           Fe1 tau(   3) = (  0.6666670  0.3333330  0.6091152  )
         4           Fe2 tau(   4) = (  0.6666670  0.3333330  0.1090991  )
         5           Fe2 tau(   5) = (  0.0000000  0.0000000  0.2767753  )
         6           Fe2 tau(   6) = (  0.3333330  0.6666670  0.4462921  )
         7           Bi  tau(   7) = (  0.6666670  0.3333330  0.8352117  )
         8           Bi  tau(   8) = (  0.3333330  0.6666670  0.6697508  )
         9           Bi  tau(   9) = (  0.3333330  0.6666670  0.1697199  )
        10           Bi  tau(  10) = (  0.0000000  0.0000000  0.0001130  )
        11           Bi  tau(  11) = (  0.0000000  0.0000000  0.5001308  )
        12           Bi  tau(  12) = (  0.6666670  0.3333330  0.3351910  )
        13           O   tau(  13) = (  0.0676856  0.7565520  0.8820212  )
        14           O   tau(  14) = (  0.2434480  0.3111326  0.8820212  )
        15           O   tau(  15) = (  0.6888674  0.9323144  0.8820212  )
        16           O   tau(  16) = (  0.7314750  0.6454493  0.7151312  )
        17           O   tau(  17) = (  0.3545507  0.0860267  0.7151312  )
        18           O   tau(  18) = (  0.9139733  0.2685250  0.7151312  )
        19           O   tau(  19) = (  0.7314884  0.0860282  0.2151125  )
        20           O   tau(  20) = (  0.9139718  0.6454612  0.2151125  )
        21           O   tau(  21) = (  0.3545388  0.2685116  0.2151125  )
        22           O   tau(  22) = (  0.4074649  0.9795317  0.0467309  )
        23           O   tau(  23) = (  0.0204683  0.4279331  0.0467309  )
        24           O   tau(  24) = (  0.5720669  0.5925351  0.0467309  )
        25           O   tau(  25) = (  0.4074478  0.4279246  0.5467499  )
        26           O   tau(  26) = (  0.5720754  0.9795232  0.5467499  )
        27           O   tau(  27) = (  0.0204768  0.5925522  0.5467499  )
        28           O   tau(  28) = (  0.0676775  0.3111292  0.3820271  )
        29           O   tau(  29) = (  0.6888708  0.7565474  0.3820271  )
        30           O   tau(  30) = (  0.2434526  0.9323225  0.3820271  )

     number of k points=     2  Gaussian smearing, width (Ry)=  0.0100
                       cart. coord. in units 2pi/alat
        k(    1) = (   0.0000000   0.0000000   0.0000000), wk =   0.2500000
        k(    2) = (   0.0000000  -0.5773503   0.0000000), wk =   0.7500000

                       cryst. coord.
        k(    1) = (   0.0000000   0.0000000   0.0000000), wk =   0.2500000
        k(    2) = (   0.0000000  -0.5000000   0.0000000), wk =   0.7500000

     Dense  grid:   121145 G-vectors     FFT dimensions: (  48,  48, 120)

     Dynamical RAM for                 wfc:      11.55 MB

     Dynamical RAM for     wfc (w. buffer):      57.74 MB

     Dynamical RAM for           str. fact:       1.85 MB

     Dynamical RAM for           local pot:       0.00 MB

     Dynamical RAM for          nlocal pot:      25.98 MB

     Dynamical RAM for                qrad:       4.54 MB

     Dynamical RAM for          rho,v,vnew:       5.94 MB

     Dynamical RAM for               rhoin:       1.98 MB

     Dynamical RAM for            rho*nmix:      14.79 MB

     Dynamical RAM for           G-vectors:       1.96 MB

     Dynamical RAM for          h,s,v(r/c):       0.46 MB

     Dynamical RAM for          <psi|beta>:       1.37 MB

     Dynamical RAM for      wfcinit/wfcrot:      24.51 MB

     Dynamical RAM for           addusdens:      94.74 MB

     Estimated static dynamical RAM per process >     120.26 MB

     Estimated max dynamical RAM per process >     215.00 MB

     Estimated total dynamical RAM >     859.99 MB

     Check: negative core charge=   -0.000025
     Generating pointlists ...
     new r_m :   0.1458 (alat units)  1.5374 (a.u.) for type    1
     new r_m :   0.1687 (alat units)  1.7788 (a.u.) for type    2
     new r_m :   0.1458 (alat units)  1.5374 (a.u.) for type    3
     new r_m :   0.1458 (alat units)  1.5374 (a.u.) for type    4

     Initial potential from superposition of free atoms

     starting charge  281.99969, renormalised to  294.00000

     negative rho (up, down):  1.376E-01 1.376E-01
     Starting wfcs are  204 randomized atomic wfcs

     total cpu time spent up to now is       32.7 secs

     Self-consistent Calculation

     iteration #  1     ecut=    50.00 Ry     beta= 0.20
     CG style diagonalization
     ethr =  1.00E-02,  avg # of iterations =  2.6

     negative rho (up, down):  1.331E-01 1.331E-01

     total cpu time spent up to now is      145.3 secs

     total energy              =   -3189.34671120 Ry
     estimated scf accuracy    <      22.83094560 Ry

     total magnetization       =    -0.00 Bohr mag/cell
     absolute magnetization    =    30.54 Bohr mag/cell

     iteration #  2     ecut=    50.00 Ry     beta= 0.20
     CG style diagonalization
     ethr =  7.77E-03,  avg # of iterations =  3.0

     negative rho (up, down):  1.285E-01 1.285E-01

     total cpu time spent up to now is      258.6 secs

     total energy              =   -3192.24002092 Ry
     estimated scf accuracy    <       9.33259379 Ry

     total magnetization       =     0.00 Bohr mag/cell
     absolute magnetization    =    29.72 Bohr mag/cell

     iteration #  3     ecut=    50.00 Ry     beta= 0.20
     CG style diagonalization
     ethr =  3.17E-03,  avg # of iterations =  3.1

     negative rho (up, down):  1.295E-01 1.295E-01

     total cpu time spent up to now is      376.1 secs

     total energy              =   -3193.79890329 Ry
     estimated scf accuracy    <       4.36635702 Ry

     total magnetization       =     0.00 Bohr mag/cell
     absolute magnetization    =    28.27 Bohr mag/cell

     iteration #  4     ecut=    50.00 Ry     beta= 0.20
     CG style diagonalization
     ethr =  1.49E-03,  avg # of iterations =  3.3

     negative rho (up, down):  1.273E-01 1.273E-01

     total cpu time spent up to now is      495.4 secs

     total energy              =   -3194.79010893 Ry
     estimated scf accuracy    <       2.42622954 Ry

     total magnetization       =     0.00 Bohr mag/cell
     absolute magnetization    =    29.09 Bohr mag/cell

     iteration #  5     ecut=    50.00 Ry     beta= 0.20
     CG style diagonalization
     ethr =  8.25E-04,  avg # of iterations =  3.1

     negative rho (up, down):  1.274E-01 1.274E-01

     total cpu time spent up to now is      602.8 secs

     total energy              =   -3195.12752965 Ry
     estimated scf accuracy    <       0.17801718 Ry

     total magnetization       =    -0.00 Bohr mag/cell
     absolute magnetization    =    27.56 Bohr mag/cell

     iteration #  6     ecut=    50.00 Ry     beta= 0.20
     CG style diagonalization
     c_bands:  1 eigenvalues not converged
     c_bands:  1 eigenvalues not converged
     ethr =  6.06E-05,  avg # of iterations =  3.8

     negative rho (up, down):  1.278E-01 1.278E-01

     total cpu time spent up to now is      720.9 secs

     total energy              =   -3195.03203885 Ry
     estimated scf accuracy    <       1.15941200 Ry

     total magnetization       =     0.01 Bohr mag/cell
     absolute magnetization    =    26.00 Bohr mag/cell

     iteration #  7     ecut=    50.00 Ry     beta= 0.20
     CG style diagonalization
     ethr =  6.06E-05,  avg # of iterations =  3.4

     negative rho (up, down):  1.285E-01 1.285E-01

     total cpu time spent up to now is      830.4 secs

     total energy              =   -3195.10067069 Ry
     estimated scf accuracy    <       0.09092189 Ry

     total magnetization       =    -0.00 Bohr mag/cell
     absolute magnetization    =    27.26 Bohr mag/cell

     iteration #  8     ecut=    50.00 Ry     beta= 0.20
     CG style diagonalization
     ethr =  3.09E-05,  avg # of iterations =  3.4

     negative rho (up, down):  1.286E-01 1.286E-01

     total cpu time spent up to now is      935.3 secs

     total energy              =   -3195.11068789 Ry
     estimated scf accuracy    <       0.14922006 Ry

     total magnetization       =     0.00 Bohr mag/cell
     absolute magnetization    =    27.71 Bohr mag/cell

     iteration #  9     ecut=    50.00 Ry     beta= 0.20
     CG style diagonalization
     ethr =  3.09E-05,  avg # of iterations =  3.1

     negative rho (up, down):  1.287E-01 1.287E-01

     total cpu time spent up to now is     1029.7 secs

     total energy              =   -3195.10649834 Ry
     estimated scf accuracy    <       0.05497550 Ry

     total magnetization       =    -0.00 Bohr mag/cell
     absolute magnetization    =    27.62 Bohr mag/cell

     iteration # 10     ecut=    50.00 Ry     beta= 0.20
     CG style diagonalization
     ethr =  1.87E-05,  avg # of iterations =  3.0

     negative rho (up, down):  1.288E-01 1.288E-01

     total cpu time spent up to now is     1122.3 secs

     total energy              =   -3195.10495932 Ry
     estimated scf accuracy    <       0.01376157 Ry

     total magnetization       =     0.00 Bohr mag/cell
     absolute magnetization    =    27.54 Bohr mag/cell

     iteration # 11     ecut=    50.00 Ry     beta= 0.20
     CG style diagonalization
     c_bands:  2 eigenvalues not converged
     c_bands:  1 eigenvalues not converged
     c_bands:  2 eigenvalues not converged
     c_bands:  1 eigenvalues not converged
     ethr =  4.68E-06,  avg # of iterations =  3.4

     negative rho (up, down):  1.288E-01 1.288E-01

     total cpu time spent up to now is     1226.5 secs

     total energy              =   -3195.10675596 Ry
     estimated scf accuracy    <       0.00192228 Ry

     total magnetization       =    -0.00 Bohr mag/cell
     absolute magnetization    =    27.54 Bohr mag/cell

     iteration # 12     ecut=    50.00 Ry     beta= 0.20
     CG style diagonalization
     c_bands:  3 eigenvalues not converged
     c_bands:  1 eigenvalues not converged
     c_bands:  2 eigenvalues not converged
     c_bands:  1 eigenvalues not converged
     ethr =  6.54E-07,  avg # of iterations =  3.3

     negative rho (up, down):  1.288E-01 1.288E-01

     total cpu time spent up to now is     1333.6 secs

     total energy              =   -3195.10699578 Ry
     estimated scf accuracy    <       0.00122602 Ry

     total magnetization       =     0.00 Bohr mag/cell
     absolute magnetization    =    27.53 Bohr mag/cell

     iteration # 13     ecut=    50.00 Ry     beta= 0.20
     CG style diagonalization
     c_bands:  1 eigenvalues not converged
     ethr =  4.17E-07,  avg # of iterations =  3.2

     negative rho (up, down):  1.287E-01 1.286E-01

     Magnetic moment per site:
     atom:    1    charge:   12.9913    magn:   -3.7199    constr:    0.0000
     atom:    2    charge:   13.0037    magn:   -3.6034    constr:    0.0000
     atom:    3    charge:   13.0170    magn:   -3.5930    constr:    0.0000
     atom:    4    charge:   13.0160    magn:    3.5935    constr:    0.0000
     atom:    5    charge:   12.9922    magn:    3.7192    constr:    0.0000
     atom:    6    charge:   13.0040    magn:    3.6030    constr:    0.0000
     atom:    7    charge:   10.4963    magn:   -0.0156    constr:    0.0000
     atom:    8    charge:   10.4938    magn:   -0.0123    constr:    0.0000
     atom:    9    charge:   10.4938    magn:    0.0123    constr:    0.0000
     atom:   10    charge:   10.4965    magn:   -0.0041    constr:    0.0000
     atom:   11    charge:   10.4965    magn:    0.0041    constr:    0.0000
     atom:   12    charge:   10.4963    magn:    0.0156    constr:    0.0000
     atom:   13    charge:    5.3961    magn:   -0.2075    constr:    0.0000
     atom:   14    charge:    5.3961    magn:   -0.2075    constr:    0.0000
     atom:   15    charge:    5.3961    magn:   -0.2075    constr:    0.0000
     atom:   16    charge:    5.3951    magn:   -0.2191    constr:    0.0000
     atom:   17    charge:    5.3951    magn:   -0.2191    constr:    0.0000
     atom:   18    charge:    5.3951    magn:   -0.2191    constr:    0.0000
     atom:   19    charge:    5.3942    magn:    0.2193    constr:    0.0000
     atom:   20    charge:    5.3942    magn:    0.2193    constr:    0.0000
     atom:   21    charge:    5.3942    magn:    0.2193    constr:    0.0000
     atom:   22    charge:    5.3856    magn:    0.0655    constr:    0.0000
     atom:   23    charge:    5.3856    magn:    0.0655    constr:    0.0000
     atom:   24    charge:    5.3856    magn:    0.0655    constr:    0.0000
     atom:   25    charge:    5.3857    magn:   -0.0657    constr:    0.0000
     atom:   26    charge:    5.3857    magn:   -0.0657    constr:    0.0000
     atom:   27    charge:    5.3857    magn:   -0.0657    constr:    0.0000
     atom:   28    charge:    5.3955    magn:    0.2076    constr:    0.0000
     atom:   29    charge:    5.3955    magn:    0.2076    constr:    0.0000
     atom:   30    charge:    5.3955    magn:    0.2076    constr:    0.0000

     total cpu time spent up to now is     1432.1 secs

     End of self-consistent calculation

 ------ SPIN UP ------------


          k = 0.0000 0.0000 0.0000 ( 15101 PWs)   bands (ev):

   -79.2238 -79.0226 -78.9375 -74.2841 -74.2168 -74.1559 -45.2394 -45.1860
   -45.1859 -45.0111 -45.0111 -45.0058 -44.9937 -44.8850 -44.8850 -40.4320
   -40.3828 -40.3828 -40.3557 -40.3203 -40.3203 -40.3151 -40.2559 -40.2559
   -11.2474 -11.2474 -11.2140 -11.2140 -11.1910 -11.1910 -11.1601 -11.1509
   -11.1392 -11.1392 -11.1340 -11.1340 -11.1266 -11.1266 -11.1012 -11.0879
   -11.0796 -11.0796 -11.0713 -11.0713 -11.0679 -11.0679 -11.0578 -11.0561
   -11.0561 -11.0469 -11.0297 -11.0297 -11.0180 -11.0180  -7.8860  -7.5063
    -7.4179  -6.6437  -6.5916  -6.1799  -6.1798  -6.0683  -6.0555  -6.0554
    -5.9630  -5.9630  -5.8631  -5.8630  -5.7199  -5.7199  -5.5500  -5.5500
     0.8335   1.0744   1.1536   1.9305   2.0663   2.8217   4.9571   4.9571
     5.0484   5.4591   5.4592   5.5335   5.5681   5.5681   5.7183   5.7721
     5.7721   5.9611   6.0349   6.0350   6.2301   6.2301   6.2711   6.4274
     6.4274   6.4275   6.5198   6.7423   6.7424   7.0577   7.0577   7.1860
     7.3427   7.6279   7.6279   7.7580   7.8756   7.8756   7.9946   7.9947
     8.1787   8.3403   8.3557   8.3558   8.5309   8.5333   8.5333   8.6606
     8.6860   8.6861   8.8262   8.8263   8.9760   8.9760   9.3287   9.3288
     9.3544   9.3697   9.3698   9.4392   9.4393   9.7811   9.7812  10.1128
    10.2561  10.2562  10.2682  10.4421  10.5435  10.6766  10.7431  10.9713
    10.9713  11.6260  11.6261  12.1306  12.1306  12.3391  12.3483  12.3483
    12.3998  12.4539  12.4913  12.4913  13.3187  13.3187  13.9565  13.9565
    14.4995  14.4996  15.0734  15.1945  15.2952  15.3451  16.3926  16.3927
    16.5197  16.5197  16.5591  16.5592  16.8604  16.9021  17.1076  17.1076
    17.1878  17.1878  17.5971  17.5971  18.2931  19.5794  19.7963  19.9709
    20.6924  20.6924  20.9539  21.0374  21.6873  21.6874  21.7967  21.7968
    22.1217  22.1217  22.8318  22.9873  23.0329  23.0329  23.1874  23.1862

     occupation numbers 
     1.0000   1.0000   1.0000   1.0000   1.0000   1.0000   1.0000   1.0000
     1.0000   1.0000   1.0000   1.0000   1.0000   1.0000   1.0000   1.0000
     1.0000   1.0000   1.0000   1.0000   1.0000   1.0000   1.0000   1.0000
     1.0000   1.0000   1.0000   1.0000   1.0000   1.0000   1.0000   1.0000
     1.0000   1.0000   1.0000   1.0000   1.0000   1.0000   1.0000   1.0000
     1.0000   1.0000   1.0000   1.0000   1.0000   1.0000   1.0000   1.0000
     1.0000   1.0000   1.0000   1.0000   1.0000   1.0000   1.0000   1.0000
     1.0000   1.0000   1.0000   1.0000   1.0000   1.0000   1.0000   1.0000
     1.0000   1.0000   1.0000   1.0000   1.0000   1.0000   1.0000   1.0000
     1.0000   1.0000   1.0000   1.0000   1.0000   1.0000   1.0000   1.0000
     1.0000   1.0000   1.0000   1.0000   1.0000   1.0000   1.0000   1.0000
     1.0000   1.0000   1.0000   1.0000   1.0000   1.0000   1.0000   1.0000
     1.0000   1.0000   1.0000   1.0000   1.0000   1.0000   1.0000   1.0000
     1.0000   1.0000   1.0000   1.0000   1.0000   1.0000   1.0000   1.0000
     1.0000   1.0000   1.0000   1.0000   1.0000   1.0000   1.0000   1.0000
     1.0000   1.0000   1.0000   1.0000   1.0000   1.0000   1.0000   1.0000
     1.0000   1.0000   1.0000   1.0000   1.0000   1.0000   1.0000   1.0000
     1.0000   1.0000   1.0000   1.0000   1.0000   1.0000   1.0000   1.0000
     1.0000   0.9897   0.9897   0.0017   0.0017   0.0000   0.0000   0.0000
     0.0000   0.0000   0.0000   0.0000   0.0000   0.0000   0.0000   0.0000
     0.0000   0.0000   0.0000   0.0000   0.0000   0.0000   0.0000   0.0000
     0.0000   0.0000   0.0000   0.0000   0.0000   0.0000   0.0000   0.0000
     0.0000   0.0000   0.0000   0.0000   0.0000   0.0000   0.0000   0.0000
     0.0000   0.0000   0.0000   0.0000   0.0000   0.0000   0.0000   0.0000
     0.0000   0.0000   0.0000   0.0000   0.0000   0.0000   0.0000   0.0000

          k = 0.0000-0.5774 0.0000 ( 15164 PWs)   bands (ev):

   -79.2238 -79.0226 -78.9375 -74.2841 -74.2168 -74.1559 -45.2394 -45.1860
   -45.1859 -45.0111 -45.0111 -45.0058 -44.9937 -44.8850 -44.8850 -40.4320
   -40.3828 -40.3828 -40.3557 -40.3203 -40.3203 -40.3151 -40.2559 -40.2559
   -11.2428 -11.2144 -11.1965 -11.1912 -11.1869 -11.1773 -11.1683 -11.1561
   -11.1393 -11.1371 -11.1261 -11.1227 -11.1174 -11.1143 -11.1074 -11.1002
   -11.0879 -11.0852 -11.0792 -11.0741 -11.0731 -11.0707 -11.0672 -11.0579
   -11.0556 -11.0461 -11.0437 -11.0353 -11.0328 -11.0212  -7.2285  -7.1892
    -7.0233  -6.8551  -6.8182  -6.4416  -6.4189  -6.3118  -6.1766  -6.0969
    -6.0612  -6.0358  -5.9694  -5.8954  -5.7934  -5.7495  -5.6583  -5.5701
     1.0190   1.2412   1.2634   1.5595   1.6229   1.8351   5.0607   5.3411
     5.3885   5.5074   5.6895   5.7026   5.8099   5.8407   5.8689   6.0335
     6.0669   6.1205   6.2299   6.2959   6.4983   6.5847   6.6553   6.7432
     6.7756   6.8294   7.0001   7.0642   7.1701   7.2298   7.2744   7.4037
     7.4746   7.5283   7.6487   7.7337   7.7855   7.8143   7.9089   7.9485
     8.0769   8.1630   8.2063   8.2886   8.3537   8.3853   8.4892   8.5248
     8.5757   8.6458   8.7205   8.7826   8.9523   9.0834   9.1031   9.1429
     9.2003   9.2401   9.2740   9.3872   9.4299   9.5117   9.5701   9.8780
    10.0665  10.1958  10.3797  10.4088  10.4631  10.6247  10.9030  10.9460
    11.0525  11.0902  11.5604  12.0885  12.1589  12.2752  12.3353  12.3764
    12.4417  12.4916  12.6720  12.7529  13.3615  13.4442  13.6208  13.8011
    13.8833  14.3867  14.5977  15.1373  15.1810  15.3704  15.4495  15.4817
    15.5286  15.5689  15.6493  16.6480  16.6928  16.7730  16.8432  16.9328
    16.9967  17.0651  17.1235  17.2014  20.0257  20.1974  20.4725  20.9829
    21.1174  21.2056  21.6948  21.8414  21.9749  22.2843  22.3245  22.3434
    22.4642  22.5078  22.8304  22.8887  23.1111  23.1771  23.2356  23.2895

     occupation numbers 
     1.0000   1.0000   1.0000   1.0000   1.0000   1.0000   1.0000   1.0000
     1.0000   1.0000   1.0000   1.0000   1.0000   1.0000   1.0000   1.0000
     1.0000   1.0000   1.0000   1.0000   1.0000   1.0000   1.0000   1.0000
     1.0000   1.0000   1.0000   1.0000   1.0000   1.0000   1.0000   1.0000
     1.0000   1.0000   1.0000   1.0000   1.0000   1.0000   1.0000   1.0000
     1.0000   1.0000   1.0000   1.0000   1.0000   1.0000   1.0000   1.0000
     1.0000   1.0000   1.0000   1.0000   1.0000   1.0000   1.0000   1.0000
     1.0000   1.0000   1.0000   1.0000   1.0000   1.0000   1.0000   1.0000
     1.0000   1.0000   1.0000   1.0000   1.0000   1.0000   1.0000   1.0000
     1.0000   1.0000   1.0000   1.0000   1.0000   1.0000   1.0000   1.0000
     1.0000   1.0000   1.0000   1.0000   1.0000   1.0000   1.0000   1.0000
     1.0000   1.0000   1.0000   1.0000   1.0000   1.0000   1.0000   1.0000
     1.0000   1.0000   1.0000   1.0000   1.0000   1.0000   1.0000   1.0000
     1.0000   1.0000   1.0000   1.0000   1.0000   1.0000   1.0000   1.0000
     1.0000   1.0000   1.0000   1.0000   1.0000   1.0000   1.0000   1.0000
     1.0000   1.0000   1.0000   1.0000   1.0000   1.0000   1.0000   1.0000
     1.0000   1.0000   1.0000   1.0000   1.0000   1.0000   1.0000   1.0000
     1.0000   1.0000   1.0000   1.0000   1.0000   1.0000   1.0000   1.0000
     1.0000   1.0000   0.9986   0.0064   0.0006   0.0000   0.0000   0.0000
     0.0000   0.0000   0.0000   0.0000   0.0000   0.0000   0.0000   0.0000
     0.0000   0.0000   0.0000   0.0000   0.0000   0.0000   0.0000   0.0000
     0.0000   0.0000   0.0000   0.0000   0.0000   0.0000   0.0000   0.0000
     0.0000   0.0000   0.0000   0.0000   0.0000   0.0000   0.0000   0.0000
     0.0000   0.0000   0.0000   0.0000   0.0000   0.0000   0.0000   0.0000
     0.0000   0.0000   0.0000   0.0000   0.0000   0.0000   0.0000   0.0000

 ------ SPIN DOWN ----------


          k = 0.0000 0.0000 0.0000 ( 15101 PWs)   bands (ev):

   -79.2229 -79.0212 -78.9425 -74.2834 -74.2181 -74.1504 -45.2382 -45.1855
   -45.1854 -45.0104 -45.0097 -45.0097 -44.9925 -44.8902 -44.8902 -40.4313
   -40.3820 -40.3820 -40.3568 -40.3215 -40.3215 -40.3099 -40.2504 -40.2504
   -11.2487 -11.2487 -11.2134 -11.2134 -11.1908 -11.1908 -11.1640 -11.1472
   -11.1399 -11.1399 -11.1361 -11.1361 -11.1238 -11.1238 -11.1015 -11.0879
   -11.0800 -11.0800 -11.0725 -11.0725 -11.0679 -11.0679 -11.0597 -11.0546
   -11.0546 -11.0445 -11.0314 -11.0314 -11.0160 -11.0160  -7.8883  -7.5069
    -7.4162  -6.6447  -6.5911  -6.1844  -6.1843  -6.0662  -6.0568  -6.0567
    -5.9638  -5.9638  -5.8642  -5.8641  -5.7157  -5.7157  -5.5459  -5.5458
     0.8326   1.0752   1.1533   1.9306   2.0661   2.8220   4.9547   4.9547
     5.0462   5.4575   5.4575   5.5327   5.5687   5.5687   5.7190   5.7708
     5.7708   5.9596   6.0352   6.0352   6.2298   6.2299   6.2703   6.4263
     6.4264   6.4284   6.5222   6.7440   6.7440   7.0567   7.0567   7.1851
     7.3437   7.6305   7.6305   7.7579   7.8764   7.8764   7.9937   7.9938
     8.1791   8.3385   8.3553   8.3554   8.5305   8.5334   8.5334   8.6610
     8.6849   8.6849   8.8269   8.8269   8.9776   8.9776   9.3281   9.3282
     9.3538   9.3698   9.3699   9.4386   9.4387   9.7828   9.7828  10.1136
    10.2545  10.2545  10.2677  10.4454  10.5425  10.6762  10.7416  10.9693
    10.9694  11.6241  11.6242  12.1319  12.1319  12.3412  12.3496  12.3496
    12.4006  12.4575  12.4942  12.4942  13.3200  13.3200  13.9586  13.9586
    14.5013  14.5014  15.0717  15.1942  15.2955  15.3464  16.3910  16.3910
    16.5202  16.5203  16.5594  16.5595  16.8607  16.9021  17.1077  17.1077
    17.1874  17.1874  17.5982  17.5983  18.2919  19.5783  19.7953  19.9717
    20.6917  20.6917  20.9550  21.0383  21.6870  21.6871  21.7973  21.7973
    22.1212  22.1213  22.8296  22.9848  23.0331  23.0333  23.1858  23.1844

     occupation numbers 
     1.0000   1.0000   1.0000   1.0000   1.0000   1.0000   1.0000   1.0000
     1.0000   1.0000   1.0000   1.0000   1.0000   1.0000   1.0000   1.0000
     1.0000   1.0000   1.0000   1.0000   1.0000   1.0000   1.0000   1.0000
     1.0000   1.0000   1.0000   1.0000   1.0000   1.0000   1.0000   1.0000
     1.0000   1.0000   1.0000   1.0000   1.0000   1.0000   1.0000   1.0000
     1.0000   1.0000   1.0000   1.0000   1.0000   1.0000   1.0000   1.0000
     1.0000   1.0000   1.0000   1.0000   1.0000   1.0000   1.0000   1.0000
     1.0000   1.0000   1.0000   1.0000   1.0000   1.0000   1.0000   1.0000
     1.0000   1.0000   1.0000   1.0000   1.0000   1.0000   1.0000   1.0000
     1.0000   1.0000   1.0000   1.0000   1.0000   1.0000   1.0000   1.0000
     1.0000   1.0000   1.0000   1.0000   1.0000   1.0000   1.0000   1.0000
     1.0000   1.0000   1.0000   1.0000   1.0000   1.0000   1.0000   1.0000
     1.0000   1.0000   1.0000   1.0000   1.0000   1.0000   1.0000   1.0000
     1.0000   1.0000   1.0000   1.0000   1.0000   1.0000   1.0000   1.0000
     1.0000   1.0000   1.0000   1.0000   1.0000   1.0000   1.0000   1.0000
     1.0000   1.0000   1.0000   1.0000   1.0000   1.0000   1.0000   1.0000
     1.0000   1.0000   1.0000   1.0000   1.0000   1.0000   1.0000   1.0000
     1.0000   1.0000   1.0000   1.0000   1.0000   1.0000   1.0000   1.0000
     1.0000   0.9903   0.9902   0.0016   0.0016   0.0000   0.0000   0.0000
     0.0000   0.0000   0.0000   0.0000   0.0000   0.0000   0.0000   0.0000
     0.0000   0.0000   0.0000   0.0000   0.0000   0.0000   0.0000   0.0000
     0.0000   0.0000   0.0000   0.0000   0.0000   0.0000   0.0000   0.0000
     0.0000   0.0000   0.0000   0.0000   0.0000   0.0000   0.0000   0.0000
     0.0000   0.0000   0.0000   0.0000   0.0000   0.0000   0.0000   0.0000
     0.0000   0.0000   0.0000   0.0000   0.0000   0.0000   0.0000   0.0000

          k = 0.0000-0.5774 0.0000 ( 15164 PWs)   bands (ev):

   -79.2229 -79.0212 -78.9425 -74.2834 -74.2181 -74.1504 -45.2382 -45.1855
   -45.1854 -45.0104 -45.0097 -45.0097 -44.9925 -44.8902 -44.8902 -40.4313
   -40.3820 -40.3820 -40.3568 -40.3215 -40.3215 -40.3099 -40.2504 -40.2504
   -11.2442 -11.2138 -11.1998 -11.1910 -11.1845 -11.1783 -11.1680 -11.1556
   -11.1402 -11.1357 -11.1287 -11.1251 -11.1155 -11.1135 -11.1078 -11.0976
   -11.0883 -11.0859 -11.0790 -11.0743 -11.0725 -11.0710 -11.0678 -11.0585
   -11.0567 -11.0467 -11.0429 -11.0348 -11.0317 -11.0191  -7.2327  -7.1910
    -7.0221  -6.8554  -6.8159  -6.4416  -6.4192  -6.3156  -6.1773  -6.0970
    -6.0639  -6.0366  -5.9693  -5.8968  -5.7903  -5.7459  -5.6549  -5.5661
     1.0176   1.2419   1.2631   1.5595   1.6223   1.8364   5.0576   5.3394
     5.3854   5.5050   5.6894   5.7022   5.8081   5.8411   5.8691   6.0338
     6.0659   6.1205   6.2285   6.2970   6.4980   6.5851   6.6545   6.7422
     6.7768   6.8304   6.9998   7.0646   7.1703   7.2296   7.2739   7.4040
     7.4742   7.5271   7.6491   7.7343   7.7858   7.8149   7.9102   7.9515
     8.0761   8.1632   8.2073   8.2887   8.3537   8.3846   8.4891   8.5233
     8.5760   8.6462   8.7205   8.7829   8.9526   9.0844   9.1024   9.1443
     9.2005   9.2412   9.2759   9.3877   9.4293   9.5104   9.5687   9.8768
    10.0684  10.1966  10.3785  10.4086  10.4621  10.6245  10.9004  10.9443
    11.0521  11.0881  11.5585  12.0899  12.1609  12.2771  12.3364  12.3784
    12.4430  12.4940  12.6740  12.7560  13.3631  13.4457  13.6224  13.8026
    13.8855  14.3884  14.5972  15.1364  15.1797  15.3705  15.4500  15.4816
    15.5280  15.5704  15.6500  16.6463  16.6935  16.7742  16.8428  16.9333
    16.9946  17.0637  17.1255  17.2033  20.0228  20.1955  20.4708  20.9845
    21.1194  21.2072  21.6941  21.8407  21.9744  22.2844  22.3229  22.3435
    22.4643  22.5096  22.8294  22.8882  23.1096  23.1776  23.2357  23.2902

     occupation numbers 
     1.0000   1.0000   1.0000   1.0000   1.0000   1.0000   1.0000   1.0000
     1.0000   1.0000   1.0000   1.0000   1.0000   1.0000   1.0000   1.0000
     1.0000   1.0000   1.0000   1.0000   1.0000   1.0000   1.0000   1.0000
     1.0000   1.0000   1.0000   1.0000   1.0000   1.0000   1.0000   1.0000
     1.0000   1.0000   1.0000   1.0000   1.0000   1.0000   1.0000   1.0000
     1.0000   1.0000   1.0000   1.0000   1.0000   1.0000   1.0000   1.0000
     1.0000   1.0000   1.0000   1.0000   1.0000   1.0000   1.0000   1.0000
     1.0000   1.0000   1.0000   1.0000   1.0000   1.0000   1.0000   1.0000
     1.0000   1.0000   1.0000   1.0000   1.0000   1.0000   1.0000   1.0000
     1.0000   1.0000   1.0000   1.0000   1.0000   1.0000   1.0000   1.0000
     1.0000   1.0000   1.0000   1.0000   1.0000   1.0000   1.0000   1.0000
     1.0000   1.0000   1.0000   1.0000   1.0000   1.0000   1.0000   1.0000
     1.0000   1.0000   1.0000   1.0000   1.0000   1.0000   1.0000   1.0000
     1.0000   1.0000   1.0000   1.0000   1.0000   1.0000   1.0000   1.0000
     1.0000   1.0000   1.0000   1.0000   1.0000   1.0000   1.0000   1.0000
     1.0000   1.0000   1.0000   1.0000   1.0000   1.0000   1.0000   1.0000
     1.0000   1.0000   1.0000   1.0000   1.0000   1.0000   1.0000   1.0000
     1.0000   1.0000   1.0000   1.0000   1.0000   1.0000   1.0000   1.0000
     1.0000   1.0000   0.9987   0.0061   0.0006   0.0000   0.0000   0.0000
     0.0000   0.0000   0.0000   0.0000   0.0000   0.0000   0.0000   0.0000
     0.0000   0.0000   0.0000   0.0000   0.0000   0.0000   0.0000   0.0000
     0.0000   0.0000   0.0000   0.0000   0.0000   0.0000   0.0000   0.0000
     0.0000   0.0000   0.0000   0.0000   0.0000   0.0000   0.0000   0.0000
     0.0000   0.0000   0.0000   0.0000   0.0000   0.0000   0.0000   0.0000
     0.0000   0.0000   0.0000   0.0000   0.0000   0.0000   0.0000   0.0000

     the Fermi energy is    11.8489 ev

!    total energy              =   -3195.10726181 Ry
     estimated scf accuracy    <       0.00030662 Ry
     smearing contrib. (-TS)   =      -0.00048226 Ry
     internal energy E=F+TS    =   -3195.10677956 Ry

     The total energy is F=E-TS. E is the sum of the following terms:
     one-electron contribution =   -1315.68661828 Ry
     hartree contribution      =     843.45517304 Ry
     xc contribution           =    -695.22620515 Ry
     ewald contribution        =   -2027.64912917 Ry

     total magnetization       =    -0.00 Bohr mag/cell
     absolute magnetization    =    27.56 Bohr mag/cell

     convergence has been achieved in  13 iterations

     Writing output data file /home/aldair1809/Documentos/QE/4BFO/UHUBBARD/temp/ecut_ecutwfc_50.in/bifeo3-scf.save/

     init_run     :     31.44s CPU     32.25s WALL (       1 calls)
     electrons    :   1377.56s CPU   1399.41s WALL (       1 calls)

     Called by init_run:
     wfcinit      :     28.08s CPU     28.43s WALL (       1 calls)
     wfcinit:atom :      0.03s CPU      0.06s WALL (       4 calls)
     wfcinit:wfcr :     27.72s CPU     27.98s WALL (       4 calls)
     potinit      :      0.76s CPU      0.80s WALL (       1 calls)
     hinit0       :      1.51s CPU      1.52s WALL (       1 calls)

     Called by electrons:
     c_bands      :   1255.73s CPU   1267.21s WALL (      13 calls)
     sum_band     :    106.14s CPU    112.53s WALL (      13 calls)
     v_of_rho     :      2.24s CPU      2.34s WALL (      14 calls)
     v_h          :      0.07s CPU      0.08s WALL (      14 calls)
     v_xc         :      2.17s CPU      2.27s WALL (      14 calls)
     newd         :     13.98s CPU     18.24s WALL (      14 calls)
     mix_rho      :      0.58s CPU      0.59s WALL (      13 calls)

     Called by c_bands:
     init_us_2    :      1.79s CPU      1.82s WALL (     108 calls)
     ccgdiagg     :    963.83s CPU    973.35s WALL (      52 calls)
     wfcrot       :    317.94s CPU    320.15s WALL (      52 calls)

     Called by sum_band:
     sum_band:wei :      0.01s CPU      0.01s WALL (      13 calls)
     sum_band:loo :     85.75s CPU     87.10s WALL (      13 calls)
     sum_band:buf :      0.36s CPU      0.36s WALL (      52 calls)
     sum_band:ini :      0.84s CPU      0.84s WALL (      52 calls)
     sum_band:cal :     60.67s CPU     60.76s WALL (      52 calls)
     sum_band:bec :      0.27s CPU      0.27s WALL (      52 calls)
     addusdens    :     19.52s CPU     24.51s WALL (      13 calls)
     addusd:skk   :      0.07s CPU      0.08s WALL (      52 calls)
     addusd:dgemm :      9.90s CPU     14.08s WALL (     104 calls)
     addusd:qvan2 :      9.32s CPU      9.32s WALL (     104 calls)

     Called by *cgdiagg:
     h_psi        :    576.17s CPU    585.41s WALL (   23748 calls)
     s_psi        :    360.17s CPU    360.98s WALL (   47444 calls)

     Called by h_psi:
     h_psi:calbec :    215.33s CPU    217.27s WALL (   23748 calls)
     vloc_psi     :    146.69s CPU    153.63s WALL (   23748 calls)
     add_vuspsi   :    213.11s CPU    213.51s WALL (   23748 calls)
     hs_1psi      :    552.11s CPU    559.74s WALL (   23696 calls)
     s_1psi       :    298.30s CPU    299.61s WALL (   23696 calls)

     General routines
     calbec       :    425.85s CPU    428.97s WALL (   47496 calls)
     fft          :      1.09s CPU      1.19s WALL (     292 calls)
     ffts         :      0.10s CPU      0.12s WALL (      26 calls)
     fftw         :    141.62s CPU    149.17s WALL (   78624 calls)

     Parallel routines
     fft_scatt_xy :     27.42s CPU     29.13s WALL (   78942 calls)
     fft_scatt_yz :     29.37s CPU     32.98s WALL (   78942 calls)

     PWSCF        :  23m29.60s CPU  23m52.66s WALL


   This run was terminated on:  14: 6: 5  29Sep2024            

=------------------------------------------------------------------------------=
   JOB DONE.
=------------------------------------------------------------------------------=
