
     Program PWSCF v.6.7MaX starts on 29Sep2024 at 12:46:54 

     This program is part of the open-source Quantum ESPRESSO suite
     for quantum simulation of materials; please cite
         "P. Giannozzi et al., J. Phys.:Condens. Matter 21 395502 (2009);
         "P. Giannozzi et al., J. Phys.:Condens. Matter 29 465901 (2017);
          URL http://www.quantum-espresso.org", 
     in publications or presentations arising from this work. More details at
     http://www.quantum-espresso.org/quote

     Parallel version (MPI), running on     4 processors

     MPI processes distributed on     1 nodes
     R & G space division:  proc/nbgrp/npool/nimage =       4
     Waiting for input...
     Reading input from standard input

     Current dimensions of program PWSCF are:
     Max number of different atomic species (ntypx) = 10
     Max number of k-points (npk) =  40000
     Max angular momentum in pseudopotentials (lmaxx) =  3
     Message from routine iosys:
     wrong startingpot: use default (1)

     Subspace diagonalization in iterative solution of the eigenvalue problem:
     one sub-group per band group will be used
     scalapack distributed-memory algorithm (size of sub-group:  2*  2 procs)

     Message from routine setup:
     using ibrav=0 with symmetry is DISCOURAGED, use correct ibrav instead

     Parallelization info
     --------------------
     sticks:   dense  smooth     PW     G-vecs:    dense   smooth      PW
     Min         267     267     75                17751    17751    2635
     Max         268     268     76                17762    17762    2642
     Sum        1069    1069    301                71019    71019   10553



     bravais-lattice index     =            0
     lattice parameter (alat)  =      10.5468  a.u.
     unit-cell volume          =    2535.5110 (a.u.)^3
     number of atoms/cell      =           30
     number of atomic types    =            4
     number of electrons       =       294.00
     number of Kohn-Sham states=          200
     kinetic-energy cutoff     =      35.0000  Ry
     charge density cutoff     =     140.0000  Ry
     scf convergence threshold =      1.0E-03
     mixing beta               =       0.2000
     number of iterations used =            8  plain     mixing
     Exchange-correlation=  SLA  PW   PBX  PBC
                           (   1   4   3   4   0   0   0)

     celldm(1)=  10.546849  celldm(2)=   0.000000  celldm(3)=   0.000000
     celldm(4)=   0.000000  celldm(5)=   0.000000  celldm(6)=   0.000000

     crystal axes: (cart. coord. in units of alat)
               a(1) = (   1.000000  -0.000000  -0.000000 )  
               a(2) = (  -0.500000   0.866025  -0.000000 )  
               a(3) = (   0.000000  -0.000000   2.495552 )  

     reciprocal axes: (cart. coord. in units 2 pi/alat)
               b(1) = (  1.000000  0.577350  0.000000 )  
               b(2) = (  0.000000  1.154701  0.000000 )  
               b(3) = (  0.000000  0.000000  0.400713 )  


     PseudoPot. # 1 for O  read from file:
     /home/aldair1809/Programas/QE/q-e-qe-7.3/pseudo/o_pbe_v1.2.uspp.F.UPF
     MD5 check sum: 734c27235a0248c51dbae37a1fbe46ec
     Pseudo is Ultrasoft + core correction, Zval =  6.0
     Generated by new atomic code, or converted to UPF format
     Using radial grid of  737 points,  5 beta functions with: 
                l(1) =   0
                l(2) =   0
                l(3) =   1
                l(4) =   1
                l(5) =   2
     Q(r) pseudized with  8 coefficients,  rinner =    0.900   0.900   0.900
                                                       0.900   0.900

     PseudoPot. # 2 for Bi read from file:
     /home/aldair1809/Programas/QE/q-e-qe-7.3/pseudo/bi_pbe_v1.uspp.F.UPF
     MD5 check sum: cceb9f28ec65b6d7ff33140f5b0b1758
     Pseudo is Ultrasoft + core correction, Zval = 15.0
     Generated by new atomic code, or converted to UPF format
     Using radial grid of  899 points,  6 beta functions with: 
                l(1) =   0
                l(2) =   0
                l(3) =   1
                l(4) =   1
                l(5) =   2
                l(6) =   2
     Q(r) pseudized with  6 coefficients,  rinner =    1.000   1.000   1.000
                                                       1.000   1.000

     PseudoPot. # 3 for Fe read from file:
     /home/aldair1809/Programas/QE/q-e-qe-7.3/pseudo/fe_pbe_v1.5.uspp.F.UPF
     MD5 check sum: a130daea23fe5165f5d574ae7f82ed95
     Pseudo is Ultrasoft + core correction, Zval = 16.0
     Generated by new atomic code, or converted to UPF format
     Using radial grid of  861 points,  6 beta functions with: 
                l(1) =   0
                l(2) =   0
                l(3) =   1
                l(4) =   1
                l(5) =   2
                l(6) =   2
     Q(r) pseudized with  8 coefficients,  rinner =    1.000   1.000   1.000
                                                       1.000   1.000

     PseudoPot. # 4 for Fe read from file:
     /home/aldair1809/Programas/QE/q-e-qe-7.3/pseudo/fe_pbe_v1.5.uspp.F.UPF
     MD5 check sum: a130daea23fe5165f5d574ae7f82ed95
     Pseudo is Ultrasoft + core correction, Zval = 16.0
     Generated by new atomic code, or converted to UPF format
     Using radial grid of  861 points,  6 beta functions with: 
                l(1) =   0
                l(2) =   0
                l(3) =   1
                l(4) =   1
                l(5) =   2
                l(6) =   2
     Q(r) pseudized with  8 coefficients,  rinner =    1.000   1.000   1.000
                                                       1.000   1.000

     atomic species   valence    mass     pseudopotential
        O              6.00    15.99940     O ( 1.00)
        Bi            15.00   208.98040     Bi( 1.00)
        Fe1           16.00    55.84500     Fe( 1.00)
        Fe2           16.00    55.84500     Fe( 1.00)

     Starting magnetic structure 
     atomic species   magnetization
        O            0.000
        Bi           0.000
        Fe1         -0.800
        Fe2          0.800

      3 Sym. Ops. (no inversion) found


                                    s                        frac. trans.

      isym =  1     identity                                     

 cryst.   s( 1) = (     1          0          0      )
                  (     0          1          0      )
                  (     0          0          1      )

 cart.    s( 1) = (  1.0000000 -0.0000000  0.0000000 )
                  (  0.0000000  1.0000000  0.0000000 )
                  (  0.0000000  0.0000000  1.0000000 )


      isym =  2     120 deg rotation - cryst. axis [0,0,1]       

 cryst.   s( 2) = (     0          1          0      )
                  (    -1         -1          0      )
                  (     0          0          1      )

 cart.    s( 2) = ( -0.5000000 -0.8660254  0.0000000 )
                  (  0.8660254 -0.5000000  0.0000000 )
                  (  0.0000000  0.0000000  1.0000000 )


      isym =  3     120 deg rotation - cryst. axis [0,0,-1]      

 cryst.   s( 3) = (    -1         -1          0      )
                  (     1          0          0      )
                  (     0          0          1      )

 cart.    s( 3) = ( -0.5000000  0.8660254  0.0000000 )
                  ( -0.8660254 -0.5000000  0.0000000 )
                  (  0.0000000  0.0000000  1.0000000 )


   Cartesian axes

     site n.     atom                  positions (alat units)
         1           Fe1 tau(   1) = (   0.0000000   0.0000000   1.9384582  )
         2           Fe1 tau(   2) = (  -0.0000005   0.5773506   2.3615556  )
         3           Fe1 tau(   3) = (   0.5000005   0.2886748   1.5200787  )
         4           Fe2 tau(   4) = (   0.5000005   0.2886748   0.2722626  )
         5           Fe2 tau(   5) = (   0.0000000   0.0000000   0.6907071  )
         6           Fe2 tau(   6) = (  -0.0000005   0.5773506   1.1137452  )
         7           Bi  tau(   7) = (   0.5000005   0.2886748   2.0843143  )
         8           Bi  tau(   8) = (  -0.0000005   0.5773506   1.6713980  )
         9           Bi  tau(   9) = (  -0.0000005   0.5773506   0.4235448  )
        10           Bi  tau(  10) = (   0.0000000   0.0000000   0.0002821  )
        11           Bi  tau(  11) = (   0.0000000   0.0000000   1.2481025  )
        12           Bi  tau(  12) = (   0.5000005   0.2886748   0.8364865  )
        13           O   tau(  13) = (  -0.3105904   0.6551932   2.2011299  )
        14           O   tau(  14) = (   0.0878817   0.2694488   2.2011299  )
        15           O   tau(  15) = (   0.2227102   0.8074080   2.2011299  )
        16           O   tau(  16) = (   0.4087504   0.5589755   1.7846473  )
        17           O   tau(  17) = (   0.3115373   0.0745013   1.7846473  )
        18           O   tau(  18) = (   0.7797108   0.2325494   1.7846473  )
        19           O   tau(  19) = (   0.6884743   0.0745026   0.5368244  )
        20           O   tau(  20) = (   0.5912412   0.5589858   0.5368244  )
        21           O   tau(  21) = (   0.2202830   0.2325379   0.5368244  )
        22           O   tau(  22) = (  -0.0823010   0.8482993   0.1166193  )
        23           O   tau(  23) = (  -0.1934983   0.3706010   0.1166193  )
        24           O   tau(  24) = (   0.2757993   0.5131505   0.1166193  )
        25           O   tau(  25) = (   0.1934855   0.3705936   1.3644430  )
        26           O   tau(  26) = (   0.0823138   0.8482919   1.3644430  )
        27           O   tau(  27) = (  -0.2757993   0.5131653   1.3644430  )
        28           O   tau(  28) = (  -0.0878870   0.2694458   0.9533686  )
        29           O   tau(  29) = (   0.3105971   0.6551893   0.9533686  )
        30           O   tau(  30) = (  -0.2227086   0.8074149   0.9533686  )

   Crystallographic axes

     site n.     atom                  positions (cryst. coord.)
         1           Fe1 tau(   1) = (  0.0000000  0.0000000  0.7767652  )
         2           Fe1 tau(   2) = (  0.3333330  0.6666670  0.9463058  )
         3           Fe1 tau(   3) = (  0.6666670  0.3333330  0.6091152  )
         4           Fe2 tau(   4) = (  0.6666670  0.3333330  0.1090991  )
         5           Fe2 tau(   5) = (  0.0000000  0.0000000  0.2767753  )
         6           Fe2 tau(   6) = (  0.3333330  0.6666670  0.4462921  )
         7           Bi  tau(   7) = (  0.6666670  0.3333330  0.8352117  )
         8           Bi  tau(   8) = (  0.3333330  0.6666670  0.6697508  )
         9           Bi  tau(   9) = (  0.3333330  0.6666670  0.1697199  )
        10           Bi  tau(  10) = (  0.0000000  0.0000000  0.0001130  )
        11           Bi  tau(  11) = (  0.0000000  0.0000000  0.5001308  )
        12           Bi  tau(  12) = (  0.6666670  0.3333330  0.3351910  )
        13           O   tau(  13) = (  0.0676856  0.7565520  0.8820212  )
        14           O   tau(  14) = (  0.2434480  0.3111326  0.8820212  )
        15           O   tau(  15) = (  0.6888674  0.9323144  0.8820212  )
        16           O   tau(  16) = (  0.7314750  0.6454493  0.7151312  )
        17           O   tau(  17) = (  0.3545507  0.0860267  0.7151312  )
        18           O   tau(  18) = (  0.9139733  0.2685250  0.7151312  )
        19           O   tau(  19) = (  0.7314884  0.0860282  0.2151125  )
        20           O   tau(  20) = (  0.9139718  0.6454612  0.2151125  )
        21           O   tau(  21) = (  0.3545388  0.2685116  0.2151125  )
        22           O   tau(  22) = (  0.4074649  0.9795317  0.0467309  )
        23           O   tau(  23) = (  0.0204683  0.4279331  0.0467309  )
        24           O   tau(  24) = (  0.5720669  0.5925351  0.0467309  )
        25           O   tau(  25) = (  0.4074478  0.4279246  0.5467499  )
        26           O   tau(  26) = (  0.5720754  0.9795232  0.5467499  )
        27           O   tau(  27) = (  0.0204768  0.5925522  0.5467499  )
        28           O   tau(  28) = (  0.0676775  0.3111292  0.3820271  )
        29           O   tau(  29) = (  0.6888708  0.7565474  0.3820271  )
        30           O   tau(  30) = (  0.2434526  0.9323225  0.3820271  )

     number of k points=     2  Gaussian smearing, width (Ry)=  0.0100
                       cart. coord. in units 2pi/alat
        k(    1) = (   0.0000000   0.0000000   0.0000000), wk =   0.2500000
        k(    2) = (   0.0000000  -0.5773503   0.0000000), wk =   0.7500000

                       cryst. coord.
        k(    1) = (   0.0000000   0.0000000   0.0000000), wk =   0.2500000
        k(    2) = (   0.0000000  -0.5000000   0.0000000), wk =   0.7500000

     Dense  grid:    71019 G-vectors     FFT dimensions: (  40,  40, 100)

     Dynamical RAM for                 wfc:       6.76 MB

     Dynamical RAM for     wfc (w. buffer):      33.81 MB

     Dynamical RAM for           str. fact:       1.08 MB

     Dynamical RAM for           local pot:       0.00 MB

     Dynamical RAM for          nlocal pot:      15.22 MB

     Dynamical RAM for                qrad:       3.80 MB

     Dynamical RAM for          rho,v,vnew:       3.46 MB

     Dynamical RAM for               rhoin:       1.15 MB

     Dynamical RAM for            rho*nmix:       8.67 MB

     Dynamical RAM for           G-vectors:       1.15 MB

     Dynamical RAM for          h,s,v(r/c):       0.46 MB

     Dynamical RAM for          <psi|beta>:       1.37 MB

     Dynamical RAM for      wfcinit/wfcrot:      14.75 MB

     Dynamical RAM for           addusdens:      55.53 MB

     Estimated static dynamical RAM per process >      71.53 MB

     Estimated max dynamical RAM per process >     127.06 MB

     Estimated total dynamical RAM >     508.25 MB

     Check: negative core charge=   -0.000079
     Generating pointlists ...
     new r_m :   0.1458 (alat units)  1.5374 (a.u.) for type    1
     new r_m :   0.1687 (alat units)  1.7788 (a.u.) for type    2
     new r_m :   0.1458 (alat units)  1.5374 (a.u.) for type    3
     new r_m :   0.1458 (alat units)  1.5374 (a.u.) for type    4

     Initial potential from superposition of free atoms

     starting charge  281.99969, renormalised to  294.00000

     negative rho (up, down):  1.291E-01 1.291E-01
     Starting wfcs are  204 randomized atomic wfcs

     total cpu time spent up to now is       15.9 secs

     Self-consistent Calculation

     iteration #  1     ecut=    35.00 Ry     beta= 0.20
     CG style diagonalization
     ethr =  1.00E-02,  avg # of iterations =  2.6

     negative rho (up, down):  1.248E-01 1.248E-01

     total cpu time spent up to now is       66.4 secs

     total energy              =   -3189.32404878 Ry
     estimated scf accuracy    <      22.80266809 Ry

     total magnetization       =    -0.00 Bohr mag/cell
     absolute magnetization    =    30.54 Bohr mag/cell

     iteration #  2     ecut=    35.00 Ry     beta= 0.20
     CG style diagonalization
     ethr =  7.76E-03,  avg # of iterations =  3.0

     negative rho (up, down):  1.206E-01 1.206E-01

     total cpu time spent up to now is      118.5 secs

     total energy              =   -3192.20751582 Ry
     estimated scf accuracy    <       9.32966697 Ry

     total magnetization       =    -0.00 Bohr mag/cell
     absolute magnetization    =    29.73 Bohr mag/cell

     iteration #  3     ecut=    35.00 Ry     beta= 0.20
     CG style diagonalization
     ethr =  3.17E-03,  avg # of iterations =  3.1

     negative rho (up, down):  1.215E-01 1.215E-01

     total cpu time spent up to now is      171.9 secs

     total energy              =   -3193.72690324 Ry
     estimated scf accuracy    <       4.38403763 Ry

     total magnetization       =    -0.00 Bohr mag/cell
     absolute magnetization    =    28.25 Bohr mag/cell

     iteration #  4     ecut=    35.00 Ry     beta= 0.20
     CG style diagonalization
     ethr =  1.49E-03,  avg # of iterations =  3.2

     negative rho (up, down):  1.197E-01 1.197E-01

     total cpu time spent up to now is      227.2 secs

     total energy              =   -3194.81791076 Ry
     estimated scf accuracy    <       2.18918858 Ry

     total magnetization       =     0.00 Bohr mag/cell
     absolute magnetization    =    29.08 Bohr mag/cell

     iteration #  5     ecut=    35.00 Ry     beta= 0.20
     CG style diagonalization
     ethr =  7.45E-04,  avg # of iterations =  3.1

     negative rho (up, down):  1.197E-01 1.197E-01

     total cpu time spent up to now is      280.1 secs

     total energy              =   -3195.05933069 Ry
     estimated scf accuracy    <       0.12934126 Ry

     total magnetization       =     0.00 Bohr mag/cell
     absolute magnetization    =    27.75 Bohr mag/cell

     iteration #  6     ecut=    35.00 Ry     beta= 0.20
     CG style diagonalization
     c_bands:  4 eigenvalues not converged
     c_bands:  1 eigenvalues not converged
     c_bands:  4 eigenvalues not converged
     ethr =  4.40E-05,  avg # of iterations =  4.1

     negative rho (up, down):  1.201E-01 1.201E-01

     total cpu time spent up to now is      351.8 secs

     total energy              =   -3194.97391889 Ry
     estimated scf accuracy    <       1.13775619 Ry

     total magnetization       =    -0.02 Bohr mag/cell
     absolute magnetization    =    26.09 Bohr mag/cell

     iteration #  7     ecut=    35.00 Ry     beta= 0.20
     CG style diagonalization
     c_bands:  1 eigenvalues not converged
     ethr =  4.40E-05,  avg # of iterations =  3.6

     negative rho (up, down):  1.207E-01 1.207E-01

     total cpu time spent up to now is      413.8 secs

     total energy              =   -3195.06489223 Ry
     estimated scf accuracy    <       0.07077668 Ry

     total magnetization       =     0.00 Bohr mag/cell
     absolute magnetization    =    27.38 Bohr mag/cell

     iteration #  8     ecut=    35.00 Ry     beta= 0.20
     CG style diagonalization
     c_bands:  1 eigenvalues not converged
     ethr =  2.41E-05,  avg # of iterations =  3.3

     negative rho (up, down):  1.208E-01 1.208E-01

     total cpu time spent up to now is      471.0 secs

     total energy              =   -3195.06813833 Ry
     estimated scf accuracy    <       0.11401373 Ry

     total magnetization       =    -0.00 Bohr mag/cell
     absolute magnetization    =    27.68 Bohr mag/cell

     iteration #  9     ecut=    35.00 Ry     beta= 0.20
     CG style diagonalization
     ethr =  2.41E-05,  avg # of iterations =  3.0

     negative rho (up, down):  1.209E-01 1.209E-01

     total cpu time spent up to now is      523.1 secs

     total energy              =   -3195.06333151 Ry
     estimated scf accuracy    <       0.04519144 Ry

     total magnetization       =     0.00 Bohr mag/cell
     absolute magnetization    =    27.60 Bohr mag/cell

     iteration # 10     ecut=    35.00 Ry     beta= 0.20
     CG style diagonalization
     ethr =  1.54E-05,  avg # of iterations =  3.0

     negative rho (up, down):  1.210E-01 1.210E-01

     total cpu time spent up to now is      575.2 secs

     total energy              =   -3195.06201932 Ry
     estimated scf accuracy    <       0.01073510 Ry

     total magnetization       =    -0.00 Bohr mag/cell
     absolute magnetization    =    27.51 Bohr mag/cell

     iteration # 11     ecut=    35.00 Ry     beta= 0.20
     CG style diagonalization
     ethr =  3.65E-06,  avg # of iterations =  3.4

     negative rho (up, down):  1.210E-01 1.210E-01

     total cpu time spent up to now is      634.6 secs

     total energy              =   -3195.06430766 Ry
     estimated scf accuracy    <       0.00485233 Ry

     total magnetization       =     0.00 Bohr mag/cell
     absolute magnetization    =    27.50 Bohr mag/cell

     iteration # 12     ecut=    35.00 Ry     beta= 0.20
     CG style diagonalization
     c_bands:  2 eigenvalues not converged
     c_bands:  2 eigenvalues not converged
     ethr =  1.65E-06,  avg # of iterations =  3.2

     negative rho (up, down):  1.210E-01 1.210E-01

     total cpu time spent up to now is      690.2 secs

     total energy              =   -3195.06385812 Ry
     estimated scf accuracy    <       0.00391163 Ry

     total magnetization       =    -0.00 Bohr mag/cell
     absolute magnetization    =    27.50 Bohr mag/cell

     iteration # 13     ecut=    35.00 Ry     beta= 0.20
     CG style diagonalization
     c_bands:  2 eigenvalues not converged
     ethr =  1.33E-06,  avg # of iterations =  3.1

     negative rho (up, down):  1.209E-01 1.209E-01

     Magnetic moment per site:
     atom:    1    charge:   12.9878    magn:   -3.7195    constr:    0.0000
     atom:    2    charge:   13.0020    magn:   -3.6030    constr:    0.0000
     atom:    3    charge:   13.0146    magn:   -3.5952    constr:    0.0000
     atom:    4    charge:   13.0165    magn:    3.5940    constr:    0.0000
     atom:    5    charge:   12.9867    magn:    3.7204    constr:    0.0000
     atom:    6    charge:   13.0019    magn:    3.6035    constr:    0.0000
     atom:    7    charge:   10.4953    magn:   -0.0155    constr:    0.0000
     atom:    8    charge:   10.4925    magn:   -0.0122    constr:    0.0000
     atom:    9    charge:   10.4926    magn:    0.0122    constr:    0.0000
     atom:   10    charge:   10.4872    magn:   -0.0041    constr:    0.0000
     atom:   11    charge:   10.4872    magn:    0.0041    constr:    0.0000
     atom:   12    charge:   10.4953    magn:    0.0155    constr:    0.0000
     atom:   13    charge:    5.3958    magn:   -0.2080    constr:    0.0000
     atom:   14    charge:    5.3958    magn:   -0.2080    constr:    0.0000
     atom:   15    charge:    5.3958    magn:   -0.2080    constr:    0.0000
     atom:   16    charge:    5.3949    magn:   -0.2198    constr:    0.0000
     atom:   17    charge:    5.3949    magn:   -0.2198    constr:    0.0000
     atom:   18    charge:    5.3949    magn:   -0.2198    constr:    0.0000
     atom:   19    charge:    5.3957    magn:    0.2196    constr:    0.0000
     atom:   20    charge:    5.3957    magn:    0.2196    constr:    0.0000
     atom:   21    charge:    5.3957    magn:    0.2196    constr:    0.0000
     atom:   22    charge:    5.3861    magn:    0.0658    constr:    0.0000
     atom:   23    charge:    5.3861    magn:    0.0658    constr:    0.0000
     atom:   24    charge:    5.3861    magn:    0.0658    constr:    0.0000
     atom:   25    charge:    5.3860    magn:   -0.0655    constr:    0.0000
     atom:   26    charge:    5.3860    magn:   -0.0655    constr:    0.0000
     atom:   27    charge:    5.3860    magn:   -0.0655    constr:    0.0000
     atom:   28    charge:    5.3965    magn:    0.2080    constr:    0.0000
     atom:   29    charge:    5.3965    magn:    0.2080    constr:    0.0000
     atom:   30    charge:    5.3965    magn:    0.2080    constr:    0.0000

     total cpu time spent up to now is      750.1 secs

     End of self-consistent calculation

 ------ SPIN UP ------------


          k = 0.0000 0.0000 0.0000 (  8821 PWs)   bands (ev):

   -79.2155 -79.0150 -78.9339 -74.2765 -74.2170 -74.1434 -45.2315 -45.1771
   -45.1771 -45.0030 -45.0030 -45.0023 -44.9857 -44.8808 -44.8808 -40.4239
   -40.3743 -40.3743 -40.3548 -40.3194 -40.3194 -40.3020 -40.2428 -40.2428
   -11.2474 -11.2474 -11.2120 -11.2120 -11.1895 -11.1895 -11.1634 -11.1459
   -11.1388 -11.1388 -11.1353 -11.1353 -11.1228 -11.1228 -11.1010 -11.0874
   -11.0790 -11.0790 -11.0713 -11.0713 -11.0671 -11.0671 -11.0593 -11.0533
   -11.0533 -11.0440 -11.0306 -11.0306 -11.0153 -11.0153  -7.8894  -7.5080
    -7.4159  -6.6459  -6.5917  -6.1870  -6.1869  -6.0661  -6.0590  -6.0590
    -5.9649  -5.9649  -5.8655  -5.8654  -5.7144  -5.7144  -5.5445  -5.5444
     0.8341   1.0769   1.1549   1.9323   2.0677   2.8240   4.9575   4.9575
     5.0476   5.4602   5.4602   5.5345   5.5714   5.5714   5.7216   5.7743
     5.7743   5.9623   6.0385   6.0385   6.2338   6.2338   6.2735   6.4283
     6.4284   6.4321   6.5257   6.7478   6.7478   7.0627   7.0627   7.1877
     7.3463   7.6357   7.6357   7.7632   7.8807   7.8807   7.9979   7.9979
     8.1836   8.3446   8.3587   8.3587   8.5332   8.5380   8.5381   8.6638
     8.6888   8.6889   8.8304   8.8304   8.9815   8.9816   9.3304   9.3305
     9.3561   9.3714   9.3715   9.4408   9.4409   9.7859   9.7860  10.1160
    10.2579  10.2579  10.2700  10.4491  10.5444  10.6787  10.7434  10.9728
    10.9728  11.6270  11.6271  12.1394  12.1394  12.3476  12.3564  12.3564
    12.4056  12.4626  12.5026  12.5026  13.3256  13.3256  13.9634  13.9635
    14.5079  14.5080  15.0736  15.1962  15.2982  15.3486  16.3918  16.3918
    16.5221  16.5221  16.5611  16.5611  16.8620  16.9041  17.1095  17.1095
    17.1890  17.1890  17.6008  17.6008  18.2950  19.5834  19.7990  19.9751
    20.6962  20.6963  20.9594  21.0425  21.6912  21.6914  21.8018  21.8018
    22.1253  22.1255  22.8359  22.9878  23.0379  23.0426  23.2013  23.6883

     occupation numbers 
     1.0000   1.0000   1.0000   1.0000   1.0000   1.0000   1.0000   1.0000
     1.0000   1.0000   1.0000   1.0000   1.0000   1.0000   1.0000   1.0000
     1.0000   1.0000   1.0000   1.0000   1.0000   1.0000   1.0000   1.0000
     1.0000   1.0000   1.0000   1.0000   1.0000   1.0000   1.0000   1.0000
     1.0000   1.0000   1.0000   1.0000   1.0000   1.0000   1.0000   1.0000
     1.0000   1.0000   1.0000   1.0000   1.0000   1.0000   1.0000   1.0000
     1.0000   1.0000   1.0000   1.0000   1.0000   1.0000   1.0000   1.0000
     1.0000   1.0000   1.0000   1.0000   1.0000   1.0000   1.0000   1.0000
     1.0000   1.0000   1.0000   1.0000   1.0000   1.0000   1.0000   1.0000
     1.0000   1.0000   1.0000   1.0000   1.0000   1.0000   1.0000   1.0000
     1.0000   1.0000   1.0000   1.0000   1.0000   1.0000   1.0000   1.0000
     1.0000   1.0000   1.0000   1.0000   1.0000   1.0000   1.0000   1.0000
     1.0000   1.0000   1.0000   1.0000   1.0000   1.0000   1.0000   1.0000
     1.0000   1.0000   1.0000   1.0000   1.0000   1.0000   1.0000   1.0000
     1.0000   1.0000   1.0000   1.0000   1.0000   1.0000   1.0000   1.0000
     1.0000   1.0000   1.0000   1.0000   1.0000   1.0000   1.0000   1.0000
     1.0000   1.0000   1.0000   1.0000   1.0000   1.0000   1.0000   1.0000
     1.0000   1.0000   1.0000   1.0000   1.0000   1.0000   1.0000   1.0000
     1.0000   0.9908   0.9908   0.0015   0.0015   0.0000   0.0000   0.0000
     0.0000   0.0000   0.0000   0.0000   0.0000   0.0000   0.0000   0.0000
     0.0000   0.0000   0.0000   0.0000   0.0000   0.0000   0.0000   0.0000
     0.0000   0.0000   0.0000   0.0000   0.0000   0.0000   0.0000   0.0000
     0.0000   0.0000   0.0000   0.0000   0.0000   0.0000   0.0000   0.0000
     0.0000   0.0000   0.0000   0.0000   0.0000   0.0000   0.0000   0.0000
     0.0000   0.0000   0.0000   0.0000   0.0000   0.0000   0.0000   0.0000

          k = 0.0000-0.5774 0.0000 (  8888 PWs)   bands (ev):

   -79.2155 -79.0150 -78.9339 -74.2765 -74.2170 -74.1434 -45.2315 -45.1772
   -45.1771 -45.0031 -45.0031 -45.0023 -44.9857 -44.8809 -44.8809 -40.4239
   -40.3743 -40.3743 -40.3548 -40.3195 -40.3194 -40.3020 -40.2429 -40.2429
   -11.2430 -11.2123 -11.1990 -11.1896 -11.1830 -11.1773 -11.1666 -11.1545
   -11.1390 -11.1344 -11.1281 -11.1246 -11.1147 -11.1125 -11.1069 -11.0966
   -11.0875 -11.0850 -11.0782 -11.0736 -11.0717 -11.0703 -11.0673 -11.0581
   -11.0557 -11.0460 -11.0424 -11.0342 -11.0312 -11.0186  -7.2345  -7.1926
    -7.0225  -6.8561  -6.8157  -6.4424  -6.4201  -6.3178  -6.1790  -6.0980
    -6.0656  -6.0380  -5.9699  -5.8984  -5.7896  -5.7450  -5.6539  -5.5647
     1.0191   1.2436   1.2647   1.5611   1.6238   1.8382   5.0600   5.3420
     5.3880   5.5083   5.6925   5.7055   5.8103   5.8434   5.8717   6.0367
     6.0693   6.1233   6.2320   6.3011   6.5010   6.5886   6.6588   6.7457
     6.7799   6.8339   7.0031   7.0686   7.1748   7.2329   7.2776   7.4066
     7.4778   7.5319   7.6530   7.7374   7.7895   7.8183   7.9145   7.9550
     8.0800   8.1677   8.2110   8.2930   8.3568   8.3882   8.4920   8.5270
     8.5788   8.6498   8.7237   8.7865   8.9553   9.0876   9.1045   9.1468
     9.2030   9.2439   9.2791   9.3910   9.4319   9.5134   9.5713   9.8802
    10.0722  10.1997  10.3811  10.4116  10.4643  10.6277  10.9030  10.9474
    11.0550  11.0907  11.5611  12.0964  12.1680  12.2851  12.3429  12.3854
    12.4494  12.4992  12.6802  12.7638  13.3686  13.4499  13.6285  13.8072
    13.8904  14.3942  14.6000  15.1380  15.1817  15.3723  15.4516  15.4833
    15.5298  15.5727  15.6525  16.6479  16.6951  16.7761  16.8445  16.9350
    16.9959  17.0645  17.1282  17.2062  20.0266  20.1993  20.4742  20.9881
    21.1233  21.2108  21.6988  21.8451  21.9779  22.2886  22.3268  22.3477
    22.4688  22.5149  22.8345  22.8928  23.1147  23.1816  23.2384  23.2957

     occupation numbers 
     1.0000   1.0000   1.0000   1.0000   1.0000   1.0000   1.0000   1.0000
     1.0000   1.0000   1.0000   1.0000   1.0000   1.0000   1.0000   1.0000
     1.0000   1.0000   1.0000   1.0000   1.0000   1.0000   1.0000   1.0000
     1.0000   1.0000   1.0000   1.0000   1.0000   1.0000   1.0000   1.0000
     1.0000   1.0000   1.0000   1.0000   1.0000   1.0000   1.0000   1.0000
     1.0000   1.0000   1.0000   1.0000   1.0000   1.0000   1.0000   1.0000
     1.0000   1.0000   1.0000   1.0000   1.0000   1.0000   1.0000   1.0000
     1.0000   1.0000   1.0000   1.0000   1.0000   1.0000   1.0000   1.0000
     1.0000   1.0000   1.0000   1.0000   1.0000   1.0000   1.0000   1.0000
     1.0000   1.0000   1.0000   1.0000   1.0000   1.0000   1.0000   1.0000
     1.0000   1.0000   1.0000   1.0000   1.0000   1.0000   1.0000   1.0000
     1.0000   1.0000   1.0000   1.0000   1.0000   1.0000   1.0000   1.0000
     1.0000   1.0000   1.0000   1.0000   1.0000   1.0000   1.0000   1.0000
     1.0000   1.0000   1.0000   1.0000   1.0000   1.0000   1.0000   1.0000
     1.0000   1.0000   1.0000   1.0000   1.0000   1.0000   1.0000   1.0000
     1.0000   1.0000   1.0000   1.0000   1.0000   1.0000   1.0000   1.0000
     1.0000   1.0000   1.0000   1.0000   1.0000   1.0000   1.0000   1.0000
     1.0000   1.0000   1.0000   1.0000   1.0000   1.0000   1.0000   1.0000
     1.0000   1.0000   0.9988   0.0058   0.0005   0.0000   0.0000   0.0000
     0.0000   0.0000   0.0000   0.0000   0.0000   0.0000   0.0000   0.0000
     0.0000   0.0000   0.0000   0.0000   0.0000   0.0000   0.0000   0.0000
     0.0000   0.0000   0.0000   0.0000   0.0000   0.0000   0.0000   0.0000
     0.0000   0.0000   0.0000   0.0000   0.0000   0.0000   0.0000   0.0000
     0.0000   0.0000   0.0000   0.0000   0.0000   0.0000   0.0000   0.0000
     0.0000   0.0000   0.0000   0.0000   0.0000   0.0000   0.0000   0.0000

 ------ SPIN DOWN ----------


          k = 0.0000 0.0000 0.0000 (  8821 PWs)   bands (ev):

   -79.2167 -79.0170 -78.9262 -74.2767 -74.2150 -74.1513 -45.2330 -45.1778
   -45.1778 -45.0050 -45.0050 -44.9950 -44.9876 -44.8730 -44.8730 -40.4240
   -40.3747 -40.3746 -40.3529 -40.3175 -40.3175 -40.3096 -40.2507 -40.2507
   -11.2459 -11.2459 -11.2128 -11.2128 -11.1896 -11.1896 -11.1588 -11.1504
   -11.1380 -11.1379 -11.1330 -11.1330 -11.1260 -11.1260 -11.1009 -11.0871
   -11.0787 -11.0787 -11.0700 -11.0699 -11.0671 -11.0671 -11.0575 -11.0549
   -11.0549 -11.0464 -11.0290 -11.0290 -11.0173 -11.0173  -7.8874  -7.5074
    -7.4175  -6.6445  -6.5926  -6.1823  -6.1822  -6.0683  -6.0575  -6.0574
    -5.9643  -5.9643  -5.8649  -5.8648  -5.7187  -5.7186  -5.5485  -5.5485
     0.8351   1.0760   1.1552   1.9322   2.0679   2.8237   4.9596   4.9596
     5.0498   5.4618   5.4619   5.5353   5.5711   5.5712   5.7209   5.7756
     5.7756   5.9634   6.0385   6.0385   6.2328   6.2329   6.2744   6.4307
     6.4308   6.4310   6.5237   6.7467   6.7467   7.0636   7.0636   7.1886
     7.3461   7.6332   7.6332   7.7634   7.8803   7.8803   7.9985   7.9986
     8.1838   8.3464   8.3591   8.3592   8.5335   8.5385   8.5385   8.6629
     8.6898   8.6899   8.8301   8.8301   8.9799   8.9799   9.3312   9.3313
     9.3568   9.3716   9.3716   9.4411   9.4411   9.7844   9.7844  10.1157
    10.2602  10.2602  10.2707  10.4456  10.5457  10.6782  10.7450  10.9757
    10.9757  11.6293  11.6293  12.1380  12.1380  12.3451  12.3549  12.3549
    12.4053  12.4584  12.4989  12.4989  13.3238  13.3238  13.9602  13.9603
    14.5056  14.5057  15.0758  15.1960  15.2978  15.3473  16.3941  16.3941
    16.5210  16.5211  16.5606  16.5606  16.8616  16.9040  17.1094  17.1094
    17.1895  17.1895  17.5993  17.5993  18.2969  19.5844  19.8002  19.9736
    20.6973  20.6974  20.9584  21.0414  21.6917  21.6918  21.8010  21.8010
    22.1259  22.1260  22.8378  22.9915  23.0371  23.0374  23.1888  23.3166

     occupation numbers 
     1.0000   1.0000   1.0000   1.0000   1.0000   1.0000   1.0000   1.0000
     1.0000   1.0000   1.0000   1.0000   1.0000   1.0000   1.0000   1.0000
     1.0000   1.0000   1.0000   1.0000   1.0000   1.0000   1.0000   1.0000
     1.0000   1.0000   1.0000   1.0000   1.0000   1.0000   1.0000   1.0000
     1.0000   1.0000   1.0000   1.0000   1.0000   1.0000   1.0000   1.0000
     1.0000   1.0000   1.0000   1.0000   1.0000   1.0000   1.0000   1.0000
     1.0000   1.0000   1.0000   1.0000   1.0000   1.0000   1.0000   1.0000
     1.0000   1.0000   1.0000   1.0000   1.0000   1.0000   1.0000   1.0000
     1.0000   1.0000   1.0000   1.0000   1.0000   1.0000   1.0000   1.0000
     1.0000   1.0000   1.0000   1.0000   1.0000   1.0000   1.0000   1.0000
     1.0000   1.0000   1.0000   1.0000   1.0000   1.0000   1.0000   1.0000
     1.0000   1.0000   1.0000   1.0000   1.0000   1.0000   1.0000   1.0000
     1.0000   1.0000   1.0000   1.0000   1.0000   1.0000   1.0000   1.0000
     1.0000   1.0000   1.0000   1.0000   1.0000   1.0000   1.0000   1.0000
     1.0000   1.0000   1.0000   1.0000   1.0000   1.0000   1.0000   1.0000
     1.0000   1.0000   1.0000   1.0000   1.0000   1.0000   1.0000   1.0000
     1.0000   1.0000   1.0000   1.0000   1.0000   1.0000   1.0000   1.0000
     1.0000   1.0000   1.0000   1.0000   1.0000   1.0000   1.0000   1.0000
     1.0000   0.9902   0.9902   0.0016   0.0016   0.0000   0.0000   0.0000
     0.0000   0.0000   0.0000   0.0000   0.0000   0.0000   0.0000   0.0000
     0.0000   0.0000   0.0000   0.0000   0.0000   0.0000   0.0000   0.0000
     0.0000   0.0000   0.0000   0.0000   0.0000   0.0000   0.0000   0.0000
     0.0000   0.0000   0.0000   0.0000   0.0000   0.0000   0.0000   0.0000
     0.0000   0.0000   0.0000   0.0000   0.0000   0.0000   0.0000   0.0000
     0.0000   0.0000   0.0000   0.0000   0.0000   0.0000   0.0000   0.0000

          k = 0.0000-0.5774 0.0000 (  8888 PWs)   bands (ev):

   -79.2167 -79.0170 -78.9262 -74.2767 -74.2150 -74.1513 -45.2331 -45.1778
   -45.1778 -45.0051 -45.0050 -44.9950 -44.9876 -44.8731 -44.8731 -40.4240
   -40.3747 -40.3747 -40.3529 -40.3176 -40.3175 -40.3097 -40.2507 -40.2507
   -11.2414 -11.2132 -11.1949 -11.1899 -11.1859 -11.1761 -11.1671 -11.1549
   -11.1380 -11.1361 -11.1252 -11.1217 -11.1170 -11.1136 -11.1064 -11.0994
   -11.0873 -11.0844 -11.0785 -11.0735 -11.0723 -11.0700 -11.0664 -11.0569
   -11.0551 -11.0456 -11.0429 -11.0348 -11.0321 -11.0207  -7.2308  -7.1907
    -7.0238  -6.8561  -6.8176  -6.4423  -6.4196  -6.3141  -6.1782  -6.0978
    -6.0632  -6.0368  -5.9710  -5.8969  -5.7929  -5.7487  -5.6572  -5.5687
     1.0205   1.2428   1.2650   1.5611   1.6244   1.8369   5.0628   5.3432
     5.3920   5.5104   5.6918   5.7058   5.8125   5.8437   5.8715   6.0362
     6.0700   6.1242   6.2332   6.2989   6.5013   6.5887   6.6592   6.7471
     6.7791   6.8333   7.0036   7.0684   7.1748   7.2335   7.2782   7.4071
     7.4779   7.5336   7.6524   7.7368   7.7888   7.8178   7.9137   7.9525
     8.0807   8.1680   8.2094   8.2930   8.3570   8.3891   8.4921   8.5285
     8.5784   8.6496   8.7235   8.7859   8.9550   9.0863   9.1051   9.1454
     9.2030   9.2430   9.2772   9.3906   9.4324   9.5157   9.5730   9.8819
    10.0705  10.1990  10.3824  10.4123  10.4653  10.6283  10.9062  10.9496
    11.0559  11.0934  11.5632  12.0951  12.1654  12.2830  12.3419  12.3833
    12.4478  12.4960  12.6776  12.7597  13.3668  13.4475  13.6268  13.8047
    13.8872  14.3921  14.6005  15.1391  15.1829  15.3722  15.4512  15.4832
    15.5306  15.5709  15.6513  16.6498  16.6943  16.7748  16.8448  16.9343
    16.9983  17.0668  17.1256  17.2032  20.0305  20.2020  20.4766  20.9857
    21.1202  21.2088  21.6993  21.8456  21.9789  22.2889  22.3299  22.3479
    22.4689  22.5115  22.8354  22.8938  23.1152  23.1816  23.2385  23.2943

     occupation numbers 
     1.0000   1.0000   1.0000   1.0000   1.0000   1.0000   1.0000   1.0000
     1.0000   1.0000   1.0000   1.0000   1.0000   1.0000   1.0000   1.0000
     1.0000   1.0000   1.0000   1.0000   1.0000   1.0000   1.0000   1.0000
     1.0000   1.0000   1.0000   1.0000   1.0000   1.0000   1.0000   1.0000
     1.0000   1.0000   1.0000   1.0000   1.0000   1.0000   1.0000   1.0000
     1.0000   1.0000   1.0000   1.0000   1.0000   1.0000   1.0000   1.0000
     1.0000   1.0000   1.0000   1.0000   1.0000   1.0000   1.0000   1.0000
     1.0000   1.0000   1.0000   1.0000   1.0000   1.0000   1.0000   1.0000
     1.0000   1.0000   1.0000   1.0000   1.0000   1.0000   1.0000   1.0000
     1.0000   1.0000   1.0000   1.0000   1.0000   1.0000   1.0000   1.0000
     1.0000   1.0000   1.0000   1.0000   1.0000   1.0000   1.0000   1.0000
     1.0000   1.0000   1.0000   1.0000   1.0000   1.0000   1.0000   1.0000
     1.0000   1.0000   1.0000   1.0000   1.0000   1.0000   1.0000   1.0000
     1.0000   1.0000   1.0000   1.0000   1.0000   1.0000   1.0000   1.0000
     1.0000   1.0000   1.0000   1.0000   1.0000   1.0000   1.0000   1.0000
     1.0000   1.0000   1.0000   1.0000   1.0000   1.0000   1.0000   1.0000
     1.0000   1.0000   1.0000   1.0000   1.0000   1.0000   1.0000   1.0000
     1.0000   1.0000   1.0000   1.0000   1.0000   1.0000   1.0000   1.0000
     1.0000   1.0000   0.9987   0.0061   0.0006   0.0000   0.0000   0.0000
     0.0000   0.0000   0.0000   0.0000   0.0000   0.0000   0.0000   0.0000
     0.0000   0.0000   0.0000   0.0000   0.0000   0.0000   0.0000   0.0000
     0.0000   0.0000   0.0000   0.0000   0.0000   0.0000   0.0000   0.0000
     0.0000   0.0000   0.0000   0.0000   0.0000   0.0000   0.0000   0.0000
     0.0000   0.0000   0.0000   0.0000   0.0000   0.0000   0.0000   0.0000
     0.0000   0.0000   0.0000   0.0000   0.0000   0.0000   0.0000   0.0000

     the Fermi energy is    11.8538 ev

!    total energy              =   -3195.06440186 Ry
     estimated scf accuracy    <       0.00029491 Ry
     smearing contrib. (-TS)   =      -0.00045908 Ry
     internal energy E=F+TS    =   -3195.06394278 Ry

     The total energy is F=E-TS. E is the sum of the following terms:
     one-electron contribution =   -1315.49675958 Ry
     hartree contribution      =     843.28270318 Ry
     xc contribution           =    -695.20075576 Ry
     ewald contribution        =   -2027.64913061 Ry

     total magnetization       =     0.00 Bohr mag/cell
     absolute magnetization    =    27.57 Bohr mag/cell

     convergence has been achieved in  13 iterations

     Writing output data file /home/aldair1809/Documentos/QE/4BFO/UHUBBARD/temp/ecut_ecutwfc_35.in/bifeo3-scf.save/

     init_run     :     15.15s CPU     15.50s WALL (       1 calls)
     electrons    :    722.23s CPU    734.20s WALL (       1 calls)

     Called by init_run:
     wfcinit      :     13.23s CPU     13.37s WALL (       1 calls)
     wfcinit:atom :      0.02s CPU      0.03s WALL (       4 calls)
     wfcinit:wfcr :     13.02s CPU     13.15s WALL (       4 calls)
     potinit      :      0.35s CPU      0.38s WALL (       1 calls)
     hinit0       :      0.80s CPU      0.81s WALL (       1 calls)

     Called by electrons:
     c_bands      :    659.59s CPU    666.85s WALL (      13 calls)
     sum_band     :     53.79s CPU     56.53s WALL (      13 calls)
     v_of_rho     :      1.06s CPU      1.12s WALL (      14 calls)
     v_h          :      0.03s CPU      0.03s WALL (      14 calls)
     v_xc         :      1.03s CPU      1.09s WALL (      14 calls)
     newd         :      8.14s CPU     10.22s WALL (      14 calls)
     mix_rho      :      0.24s CPU      0.24s WALL (      13 calls)

     Called by c_bands:
     init_us_2    :      1.00s CPU      1.01s WALL (     108 calls)
     ccgdiagg     :    505.54s CPU    511.56s WALL (      52 calls)
     wfcrot       :    166.15s CPU    167.51s WALL (      52 calls)

     Called by sum_band:
     sum_band:wei :      0.01s CPU      0.01s WALL (      13 calls)
     sum_band:loo :     43.38s CPU     44.11s WALL (      13 calls)
     sum_band:buf :      0.20s CPU      0.20s WALL (      52 calls)
     sum_band:ini :      0.48s CPU      0.48s WALL (      52 calls)
     sum_band:cal :     33.55s CPU     33.60s WALL (      52 calls)
     sum_band:bec :      0.26s CPU      0.26s WALL (      52 calls)
     addusdens    :     10.12s CPU     12.10s WALL (      13 calls)
     addusd:skk   :      0.04s CPU      0.04s WALL (      52 calls)
     addusd:dgemm :      4.98s CPU      6.63s WALL (     104 calls)
     addusd:qvan2 :      4.96s CPU      4.96s WALL (     104 calls)

     Called by *cgdiagg:
     h_psi        :    295.64s CPU    301.18s WALL (   23883 calls)
     s_psi        :    199.32s CPU    199.99s WALL (   47714 calls)

     Called by h_psi:
     h_psi:calbec :    118.85s CPU    120.82s WALL (   23883 calls)
     vloc_psi     :     56.96s CPU     60.30s WALL (   23883 calls)
     add_vuspsi   :    119.08s CPU    119.35s WALL (   23883 calls)
     hs_1psi      :    291.06s CPU    295.68s WALL (   23831 calls)
     s_1psi       :    162.54s CPU    163.64s WALL (   23831 calls)

     General routines
     calbec       :    232.88s CPU    235.87s WALL (   47766 calls)
     fft          :      0.35s CPU      0.40s WALL (     292 calls)
     ffts         :      0.03s CPU      0.04s WALL (      26 calls)
     fftw         :     56.20s CPU     59.67s WALL (   78894 calls)

     Parallel routines
     fft_scatt_xy :      9.05s CPU      9.66s WALL (   79212 calls)
     fft_scatt_yz :     11.10s CPU     12.08s WALL (   79212 calls)

     PWSCF        :  12m17.89s CPU  12m30.54s WALL


   This run was terminated on:  12:59:24  29Sep2024            

=------------------------------------------------------------------------------=
   JOB DONE.
=------------------------------------------------------------------------------=
