
     Program PWSCF v.6.7MaX starts on 28Sep2024 at 21:32:14 

     This program is part of the open-source Quantum ESPRESSO suite
     for quantum simulation of materials; please cite
         "P. Giannozzi et al., J. Phys.:Condens. Matter 21 395502 (2009);
         "P. Giannozzi et al., J. Phys.:Condens. Matter 29 465901 (2017);
          URL http://www.quantum-espresso.org", 
     in publications or presentations arising from this work. More details at
     http://www.quantum-espresso.org/quote

     Parallel version (MPI), running on     4 processors

     MPI processes distributed on     1 nodes
     R & G space division:  proc/nbgrp/npool/nimage =       4
     Waiting for input...
     Reading input from standard input

     Current dimensions of program PWSCF are:
     Max number of different atomic species (ntypx) = 10
     Max number of k-points (npk) =  40000
     Max angular momentum in pseudopotentials (lmaxx) =  3
     Message from routine iosys:
     wrong startingpot: use default (1)

     Subspace diagonalization in iterative solution of the eigenvalue problem:
     one sub-group per band group will be used
     scalapack distributed-memory algorithm (size of sub-group:  2*  2 procs)

     Message from routine setup:
     using ibrav=0 with symmetry is DISCOURAGED, use correct ibrav instead

     Parallelization info
     --------------------
     sticks:   dense  smooth     PW     G-vecs:    dense   smooth      PW
     Min          91      91     27                 3577     3577     587
     Max          92      92     28                 3582     3582     596
     Sum         367     367    109                14321    14321    2359



     bravais-lattice index     =            0
     lattice parameter (alat)  =      10.5468  a.u.
     unit-cell volume          =    2535.5110 (a.u.)^3
     number of atoms/cell      =           30
     number of atomic types    =            4
     number of electrons       =       294.00
     number of Kohn-Sham states=          200
     kinetic-energy cutoff     =      12.0000  Ry
     charge density cutoff     =      48.0000  Ry
     scf convergence threshold =      1.0E-03
     mixing beta               =       0.2000
     number of iterations used =            8  plain     mixing
     Exchange-correlation= SLA  PW   PSX  PSC
                           (   1   4  10   8   0   0   0)

     celldm(1)=  10.546849  celldm(2)=   0.000000  celldm(3)=   0.000000
     celldm(4)=   0.000000  celldm(5)=   0.000000  celldm(6)=   0.000000

     crystal axes: (cart. coord. in units of alat)
               a(1) = (   1.000000  -0.000000  -0.000000 )  
               a(2) = (  -0.500000   0.866025  -0.000000 )  
               a(3) = (   0.000000  -0.000000   2.495552 )  

     reciprocal axes: (cart. coord. in units 2 pi/alat)
               b(1) = (  1.000000  0.577350  0.000000 )  
               b(2) = (  0.000000  1.154701  0.000000 )  
               b(3) = (  0.000000  0.000000  0.400713 )  


     PseudoPot. # 1 for O  read from file:
     /home/aldair1809/Programas/QE/q-e-qe-7.3/pseudo/o_pbesol_v1.2.uspp.F.UPF
     MD5 check sum: 501638753501ef6325af9037351f7734
     Pseudo is Ultrasoft + core correction, Zval =  6.0
     Generated by new atomic code, or converted to UPF format
     Using radial grid of  737 points,  5 beta functions with: 
                l(1) =   0
                l(2) =   0
                l(3) =   1
                l(4) =   1
                l(5) =   2
     Q(r) pseudized with  8 coefficients,  rinner =    0.900   0.900   0.900
                                                       0.900   0.900

     PseudoPot. # 2 for Bi read from file:
     /home/aldair1809/Programas/QE/q-e-qe-7.3/pseudo/bi_pbesol_v1.uspp.F.UPF
     MD5 check sum: 588b87649a5c12ad5a0392deab1dcc00
     Pseudo is Ultrasoft + core correction, Zval = 15.0
     Generated by new atomic code, or converted to UPF format
     Using radial grid of  899 points,  6 beta functions with: 
                l(1) =   0
                l(2) =   0
                l(3) =   1
                l(4) =   1
                l(5) =   2
                l(6) =   2
     Q(r) pseudized with  6 coefficients,  rinner =    1.000   1.000   1.000
                                                       1.000   1.000

     PseudoPot. # 3 for Fe read from file:
     /home/aldair1809/Programas/QE/q-e-qe-7.3/pseudo/fe_pbesol_v1.5.uspp.F.UPF
     MD5 check sum: a3f38e9a1a818e424be8f97771a26c64
     Pseudo is Ultrasoft + core correction, Zval = 16.0
     Generated by new atomic code, or converted to UPF format
     Using radial grid of  861 points,  6 beta functions with: 
                l(1) =   0
                l(2) =   0
                l(3) =   1
                l(4) =   1
                l(5) =   2
                l(6) =   2
     Q(r) pseudized with  8 coefficients,  rinner =    1.000   1.000   1.000
                                                       1.000   1.000

     PseudoPot. # 4 for Fe read from file:
     /home/aldair1809/Programas/QE/q-e-qe-7.3/pseudo/fe_pbesol_v1.5.uspp.F.UPF
     MD5 check sum: a3f38e9a1a818e424be8f97771a26c64
     Pseudo is Ultrasoft + core correction, Zval = 16.0
     Generated by new atomic code, or converted to UPF format
     Using radial grid of  861 points,  6 beta functions with: 
                l(1) =   0
                l(2) =   0
                l(3) =   1
                l(4) =   1
                l(5) =   2
                l(6) =   2
     Q(r) pseudized with  8 coefficients,  rinner =    1.000   1.000   1.000
                                                       1.000   1.000

     atomic species   valence    mass     pseudopotential
        O              6.00    15.99940     O ( 1.00)
        Bi            15.00   208.98040     Bi( 1.00)
        Fe1           16.00    55.84500     Fe( 1.00)
        Fe2           16.00    55.84500     Fe( 1.00)

     Starting magnetic structure 
     atomic species   magnetization
        O            0.000
        Bi           0.000
        Fe1         -0.800
        Fe2          0.800

      3 Sym. Ops. (no inversion) found


                                    s                        frac. trans.

      isym =  1     identity                                     

 cryst.   s( 1) = (     1          0          0      )
                  (     0          1          0      )
                  (     0          0          1      )

 cart.    s( 1) = (  1.0000000 -0.0000000  0.0000000 )
                  (  0.0000000  1.0000000  0.0000000 )
                  (  0.0000000  0.0000000  1.0000000 )


      isym =  2     120 deg rotation - cryst. axis [0,0,1]       

 cryst.   s( 2) = (     0          1          0      )
                  (    -1         -1          0      )
                  (     0          0          1      )

 cart.    s( 2) = ( -0.5000000 -0.8660254  0.0000000 )
                  (  0.8660254 -0.5000000  0.0000000 )
                  (  0.0000000  0.0000000  1.0000000 )


      isym =  3     120 deg rotation - cryst. axis [0,0,-1]      

 cryst.   s( 3) = (    -1         -1          0      )
                  (     1          0          0      )
                  (     0          0          1      )

 cart.    s( 3) = ( -0.5000000  0.8660254  0.0000000 )
                  ( -0.8660254 -0.5000000  0.0000000 )
                  (  0.0000000  0.0000000  1.0000000 )


   Cartesian axes

     site n.     atom                  positions (alat units)
         1           Fe1 tau(   1) = (   0.0000000   0.0000000   1.9384582  )
         2           Fe1 tau(   2) = (  -0.0000005   0.5773506   2.3615556  )
         3           Fe1 tau(   3) = (   0.5000005   0.2886748   1.5200787  )
         4           Fe2 tau(   4) = (   0.5000005   0.2886748   0.2722626  )
         5           Fe2 tau(   5) = (   0.0000000   0.0000000   0.6907071  )
         6           Fe2 tau(   6) = (  -0.0000005   0.5773506   1.1137452  )
         7           Bi  tau(   7) = (   0.5000005   0.2886748   2.0843143  )
         8           Bi  tau(   8) = (  -0.0000005   0.5773506   1.6713980  )
         9           Bi  tau(   9) = (  -0.0000005   0.5773506   0.4235448  )
        10           Bi  tau(  10) = (   0.0000000   0.0000000   0.0002821  )
        11           Bi  tau(  11) = (   0.0000000   0.0000000   1.2481025  )
        12           Bi  tau(  12) = (   0.5000005   0.2886748   0.8364865  )
        13           O   tau(  13) = (  -0.3105904   0.6551932   2.2011299  )
        14           O   tau(  14) = (   0.0878817   0.2694488   2.2011299  )
        15           O   tau(  15) = (   0.2227102   0.8074080   2.2011299  )
        16           O   tau(  16) = (   0.4087504   0.5589755   1.7846473  )
        17           O   tau(  17) = (   0.3115373   0.0745013   1.7846473  )
        18           O   tau(  18) = (   0.7797108   0.2325494   1.7846473  )
        19           O   tau(  19) = (   0.6884743   0.0745026   0.5368244  )
        20           O   tau(  20) = (   0.5912412   0.5589858   0.5368244  )
        21           O   tau(  21) = (   0.2202830   0.2325379   0.5368244  )
        22           O   tau(  22) = (  -0.0823010   0.8482993   0.1166193  )
        23           O   tau(  23) = (  -0.1934983   0.3706010   0.1166193  )
        24           O   tau(  24) = (   0.2757993   0.5131505   0.1166193  )
        25           O   tau(  25) = (   0.1934855   0.3705936   1.3644430  )
        26           O   tau(  26) = (   0.0823138   0.8482919   1.3644430  )
        27           O   tau(  27) = (  -0.2757993   0.5131653   1.3644430  )
        28           O   tau(  28) = (  -0.0878870   0.2694458   0.9533686  )
        29           O   tau(  29) = (   0.3105971   0.6551893   0.9533686  )
        30           O   tau(  30) = (  -0.2227086   0.8074149   0.9533686  )

   Crystallographic axes

     site n.     atom                  positions (cryst. coord.)
         1           Fe1 tau(   1) = (  0.0000000  0.0000000  0.7767652  )
         2           Fe1 tau(   2) = (  0.3333330  0.6666670  0.9463058  )
         3           Fe1 tau(   3) = (  0.6666670  0.3333330  0.6091152  )
         4           Fe2 tau(   4) = (  0.6666670  0.3333330  0.1090991  )
         5           Fe2 tau(   5) = (  0.0000000  0.0000000  0.2767753  )
         6           Fe2 tau(   6) = (  0.3333330  0.6666670  0.4462921  )
         7           Bi  tau(   7) = (  0.6666670  0.3333330  0.8352117  )
         8           Bi  tau(   8) = (  0.3333330  0.6666670  0.6697508  )
         9           Bi  tau(   9) = (  0.3333330  0.6666670  0.1697199  )
        10           Bi  tau(  10) = (  0.0000000  0.0000000  0.0001130  )
        11           Bi  tau(  11) = (  0.0000000  0.0000000  0.5001308  )
        12           Bi  tau(  12) = (  0.6666670  0.3333330  0.3351910  )
        13           O   tau(  13) = (  0.0676856  0.7565520  0.8820212  )
        14           O   tau(  14) = (  0.2434480  0.3111326  0.8820212  )
        15           O   tau(  15) = (  0.6888674  0.9323144  0.8820212  )
        16           O   tau(  16) = (  0.7314750  0.6454493  0.7151312  )
        17           O   tau(  17) = (  0.3545507  0.0860267  0.7151312  )
        18           O   tau(  18) = (  0.9139733  0.2685250  0.7151312  )
        19           O   tau(  19) = (  0.7314884  0.0860282  0.2151125  )
        20           O   tau(  20) = (  0.9139718  0.6454612  0.2151125  )
        21           O   tau(  21) = (  0.3545388  0.2685116  0.2151125  )
        22           O   tau(  22) = (  0.4074649  0.9795317  0.0467309  )
        23           O   tau(  23) = (  0.0204683  0.4279331  0.0467309  )
        24           O   tau(  24) = (  0.5720669  0.5925351  0.0467309  )
        25           O   tau(  25) = (  0.4074478  0.4279246  0.5467499  )
        26           O   tau(  26) = (  0.5720754  0.9795232  0.5467499  )
        27           O   tau(  27) = (  0.0204768  0.5925522  0.5467499  )
        28           O   tau(  28) = (  0.0676775  0.3111292  0.3820271  )
        29           O   tau(  29) = (  0.6888708  0.7565474  0.3820271  )
        30           O   tau(  30) = (  0.2434526  0.9323225  0.3820271  )

     number of k points=     2  Gaussian smearing, width (Ry)=  0.0100
                       cart. coord. in units 2pi/alat
        k(    1) = (   0.0000000   0.0000000   0.0000000), wk =   0.2500000
        k(    2) = (   0.0000000  -0.5773503   0.0000000), wk =   0.7500000

                       cryst. coord.
        k(    1) = (   0.0000000   0.0000000   0.0000000), wk =   0.2500000
        k(    2) = (   0.0000000  -0.5000000   0.0000000), wk =   0.7500000

     Dense  grid:    14321 G-vectors     FFT dimensions: (  24,  24,  60)

     Dynamical RAM for                 wfc:       1.36 MB

     Dynamical RAM for     wfc (w. buffer):       6.79 MB

     Dynamical RAM for           str. fact:       0.22 MB

     Dynamical RAM for           local pot:       0.00 MB

     Dynamical RAM for          nlocal pot:       3.06 MB

     Dynamical RAM for                qrad:       2.23 MB

     Dynamical RAM for          rho,v,vnew:       0.72 MB

     Dynamical RAM for               rhoin:       0.24 MB

     Dynamical RAM for            rho*nmix:       1.75 MB

     Dynamical RAM for           G-vectors:       0.23 MB

     Dynamical RAM for          h,s,v(r/c):       0.46 MB

     Dynamical RAM for          <psi|beta>:       1.37 MB

     Dynamical RAM for      wfcinit/wfcrot:       3.72 MB

     Dynamical RAM for           addusdens:      11.20 MB

     Estimated static dynamical RAM per process >      15.91 MB

     Estimated max dynamical RAM per process >      27.11 MB

     Estimated total dynamical RAM >     108.42 MB

     Check: negative core charge=   -0.004349
     Generating pointlists ...
     new r_m :   0.1458 (alat units)  1.5374 (a.u.) for type    1
     new r_m :   0.1687 (alat units)  1.7788 (a.u.) for type    2
     new r_m :   0.1458 (alat units)  1.5374 (a.u.) for type    3
     new r_m :   0.1458 (alat units)  1.5374 (a.u.) for type    4

     Initial potential from superposition of free atoms

     starting charge  281.99971, renormalised to  294.00000

     negative rho (up, down):  4.050E-01 4.050E-01
     Starting wfcs are  204 randomized atomic wfcs

     total cpu time spent up to now is        3.5 secs

     Self-consistent Calculation

     iteration #  1     ecut=    12.00 Ry     beta= 0.20
     CG style diagonalization
     ethr =  1.00E-02,  avg # of iterations =  3.8

     negative rho (up, down):  2.199E-01 2.195E-01

     total cpu time spent up to now is       18.4 secs

     total energy              =   -3064.44029692 Ry
     estimated scf accuracy    <     179.76652152 Ry

     total magnetization       =    -0.25 Bohr mag/cell
     absolute magnetization    =     9.82 Bohr mag/cell

     iteration #  2     ecut=    12.00 Ry     beta= 0.20
     CG style diagonalization
     ethr =  1.00E-02,  avg # of iterations =  3.6

     negative rho (up, down):  1.665E-01 1.664E-01

     total cpu time spent up to now is       31.2 secs

     total energy              =   -3069.69118278 Ry
     estimated scf accuracy    <      46.99032717 Ry

     total magnetization       =    -0.38 Bohr mag/cell
     absolute magnetization    =    25.63 Bohr mag/cell

     iteration #  3     ecut=    12.00 Ry     beta= 0.20
     CG style diagonalization
     ethr =  1.00E-02,  avg # of iterations =  3.0

     negative rho (up, down):  1.477E-01 1.474E-01

     total cpu time spent up to now is       42.3 secs

     total energy              =   -3067.35524379 Ry
     estimated scf accuracy    <      24.50862510 Ry

     total magnetization       =     1.89 Bohr mag/cell
     absolute magnetization    =    20.75 Bohr mag/cell

     iteration #  4     ecut=    12.00 Ry     beta= 0.20
     CG style diagonalization
     ethr =  8.34E-03,  avg # of iterations =  3.3

     negative rho (up, down):  1.374E-01 1.376E-01

     total cpu time spent up to now is       54.1 secs

     total energy              =   -3065.35166951 Ry
     estimated scf accuracy    <     115.46706763 Ry

     total magnetization       =    -2.80 Bohr mag/cell
     absolute magnetization    =    14.75 Bohr mag/cell

     iteration #  5     ecut=    12.00 Ry     beta= 0.20
     CG style diagonalization
     ethr =  8.34E-03,  avg # of iterations =  3.0

     negative rho (up, down):  1.369E-01 1.370E-01

     total cpu time spent up to now is       64.9 secs

     total energy              =   -3069.70785043 Ry
     estimated scf accuracy    <       6.90114398 Ry

     total magnetization       =    -1.09 Bohr mag/cell
     absolute magnetization    =    12.20 Bohr mag/cell

     iteration #  6     ecut=    12.00 Ry     beta= 0.20
     CG style diagonalization
     ethr =  2.35E-03,  avg # of iterations =  3.1

     negative rho (up, down):  1.383E-01 1.384E-01

     total cpu time spent up to now is       77.1 secs

     total energy              =   -3070.08053752 Ry
     estimated scf accuracy    <       4.58910124 Ry

     total magnetization       =    -0.54 Bohr mag/cell
     absolute magnetization    =    10.40 Bohr mag/cell

     iteration #  7     ecut=    12.00 Ry     beta= 0.20
     CG style diagonalization
     ethr =  1.56E-03,  avg # of iterations =  3.0

     negative rho (up, down):  1.396E-01 1.396E-01

     total cpu time spent up to now is       87.9 secs

     total energy              =   -3070.12380642 Ry
     estimated scf accuracy    <       9.01707112 Ry

     total magnetization       =     1.13 Bohr mag/cell
     absolute magnetization    =    10.01 Bohr mag/cell

     iteration #  8     ecut=    12.00 Ry     beta= 0.20
     CG style diagonalization
     ethr =  1.56E-03,  avg # of iterations =  3.0

     negative rho (up, down):  1.416E-01 1.418E-01

     total cpu time spent up to now is       98.6 secs

     total energy              =   -3070.52281471 Ry
     estimated scf accuracy    <       3.17921691 Ry

     total magnetization       =     1.97 Bohr mag/cell
     absolute magnetization    =     9.63 Bohr mag/cell

     iteration #  9     ecut=    12.00 Ry     beta= 0.20
     CG style diagonalization
     ethr =  1.08E-03,  avg # of iterations =  3.0

     negative rho (up, down):  1.458E-01 1.459E-01

     total cpu time spent up to now is      109.3 secs

     total energy              =   -3070.79585084 Ry
     estimated scf accuracy    <       0.66582717 Ry

     total magnetization       =    -0.26 Bohr mag/cell
     absolute magnetization    =     8.18 Bohr mag/cell

     iteration # 10     ecut=    12.00 Ry     beta= 0.20
     CG style diagonalization
     ethr =  2.26E-04,  avg # of iterations =  3.2

     negative rho (up, down):  1.460E-01 1.461E-01

     total cpu time spent up to now is      120.5 secs

     total energy              =   -3070.88244968 Ry
     estimated scf accuracy    <       0.70201428 Ry

     total magnetization       =    -0.05 Bohr mag/cell
     absolute magnetization    =     5.80 Bohr mag/cell

     iteration # 11     ecut=    12.00 Ry     beta= 0.20
     CG style diagonalization
     ethr =  2.26E-04,  avg # of iterations =  3.0

     negative rho (up, down):  1.459E-01 1.460E-01

     total cpu time spent up to now is      131.3 secs

     total energy              =   -3070.93063946 Ry
     estimated scf accuracy    <       0.11039212 Ry

     total magnetization       =     0.18 Bohr mag/cell
     absolute magnetization    =     4.95 Bohr mag/cell

     iteration # 12     ecut=    12.00 Ry     beta= 0.20
     CG style diagonalization
     c_bands:  1 eigenvalues not converged
     ethr =  3.75E-05,  avg # of iterations =  3.1

     negative rho (up, down):  1.452E-01 1.452E-01

     total cpu time spent up to now is      142.8 secs

     total energy              =   -3070.95395475 Ry
     estimated scf accuracy    <       0.04267129 Ry

     total magnetization       =     0.16 Bohr mag/cell
     absolute magnetization    =     4.48 Bohr mag/cell

     iteration # 13     ecut=    12.00 Ry     beta= 0.20
     CG style diagonalization
     c_bands:  1 eigenvalues not converged
     c_bands:  1 eigenvalues not converged
     ethr =  1.45E-05,  avg # of iterations =  3.2

     negative rho (up, down):  1.450E-01 1.450E-01

     total cpu time spent up to now is      154.4 secs

     total energy              =   -3070.96604687 Ry
     estimated scf accuracy    <       0.06319024 Ry

     total magnetization       =     0.03 Bohr mag/cell
     absolute magnetization    =     3.35 Bohr mag/cell

     iteration # 14     ecut=    12.00 Ry     beta= 0.20
     CG style diagonalization
     ethr =  1.45E-05,  avg # of iterations =  3.0

     negative rho (up, down):  1.447E-01 1.447E-01

     total cpu time spent up to now is      165.2 secs

     total energy              =   -3070.97605492 Ry
     estimated scf accuracy    <       0.01595521 Ry

     total magnetization       =     0.07 Bohr mag/cell
     absolute magnetization    =     2.94 Bohr mag/cell

     iteration # 15     ecut=    12.00 Ry     beta= 0.20
     CG style diagonalization
     ethr =  5.43E-06,  avg # of iterations =  3.0

     negative rho (up, down):  1.444E-01 1.444E-01

     total cpu time spent up to now is      176.1 secs

     total energy              =   -3070.98219337 Ry
     estimated scf accuracy    <       0.00750320 Ry

     total magnetization       =     0.14 Bohr mag/cell
     absolute magnetization    =     2.33 Bohr mag/cell

     iteration # 16     ecut=    12.00 Ry     beta= 0.20
     CG style diagonalization
     ethr =  2.55E-06,  avg # of iterations =  3.1

     negative rho (up, down):  1.441E-01 1.441E-01

     total cpu time spent up to now is      187.2 secs

     total energy              =   -3070.98637029 Ry
     estimated scf accuracy    <       0.00593593 Ry

     total magnetization       =     0.07 Bohr mag/cell
     absolute magnetization    =     1.68 Bohr mag/cell

     iteration # 17     ecut=    12.00 Ry     beta= 0.20
     CG style diagonalization
     ethr =  2.02E-06,  avg # of iterations =  3.0

     negative rho (up, down):  1.441E-01 1.441E-01

     total cpu time spent up to now is      198.1 secs

     total energy              =   -3070.98839142 Ry
     estimated scf accuracy    <       0.00111688 Ry

     total magnetization       =     0.08 Bohr mag/cell
     absolute magnetization    =     1.10 Bohr mag/cell

     iteration # 18     ecut=    12.00 Ry     beta= 0.20
     CG style diagonalization
     ethr =  3.80E-07,  avg # of iterations =  3.0

     negative rho (up, down):  1.442E-01 1.442E-01

     Magnetic moment per site:
     atom:    1    charge:   12.7971    magn:   -0.0496    constr:    0.0000
     atom:    2    charge:   12.7915    magn:   -0.1082    constr:    0.0000
     atom:    3    charge:   12.8108    magn:   -0.1065    constr:    0.0000
     atom:    4    charge:   12.8005    magn:    0.1114    constr:    0.0000
     atom:    5    charge:   12.7933    magn:    0.0770    constr:    0.0000
     atom:    6    charge:   12.7966    magn:    0.1170    constr:    0.0000
     atom:    7    charge:   10.5082    magn:   -0.0004    constr:    0.0000
     atom:    8    charge:   10.4994    magn:   -0.0001    constr:    0.0000
     atom:    9    charge:   10.4993    magn:    0.0005    constr:    0.0000
     atom:   10    charge:   10.5083    magn:   -0.0015    constr:    0.0000
     atom:   11    charge:   10.5085    magn:    0.0019    constr:    0.0000
     atom:   12    charge:   10.5082    magn:    0.0008    constr:    0.0000
     atom:   13    charge:    5.1989    magn:    0.0008    constr:    0.0000
     atom:   14    charge:    5.1989    magn:    0.0008    constr:    0.0000
     atom:   15    charge:    5.1989    magn:    0.0008    constr:    0.0000
     atom:   16    charge:    5.1958    magn:    0.0009    constr:    0.0000
     atom:   17    charge:    5.1958    magn:    0.0009    constr:    0.0000
     atom:   18    charge:    5.1958    magn:    0.0009    constr:    0.0000
     atom:   19    charge:    5.1953    magn:    0.0007    constr:    0.0000
     atom:   20    charge:    5.1953    magn:    0.0007    constr:    0.0000
     atom:   21    charge:    5.1953    magn:    0.0007    constr:    0.0000
     atom:   22    charge:    5.1953    magn:    0.0055    constr:    0.0000
     atom:   23    charge:    5.1953    magn:    0.0055    constr:    0.0000
     atom:   24    charge:    5.1953    magn:    0.0055    constr:    0.0000
     atom:   25    charge:    5.1964    magn:   -0.0042    constr:    0.0000
     atom:   26    charge:    5.1964    magn:   -0.0042    constr:    0.0000
     atom:   27    charge:    5.1964    magn:   -0.0042    constr:    0.0000
     atom:   28    charge:    5.1994    magn:   -0.0002    constr:    0.0000
     atom:   29    charge:    5.1994    magn:   -0.0002    constr:    0.0000
     atom:   30    charge:    5.1994    magn:   -0.0002    constr:    0.0000

     total cpu time spent up to now is      208.9 secs

     End of self-consistent calculation

 ------ SPIN UP ------------


          k = 0.0000 0.0000 0.0000 (  1799 PWs)   bands (ev):

  -100.9684-100.9397-100.8440-100.4206-100.2895-100.2198 -54.7591 -54.3897
   -54.1088 -54.1088 -53.4577 -53.4577 -53.3157 -53.3157 -53.1688 -52.8619
   -52.4445 -52.4445 -52.4116 -52.3622 -52.1461 -52.1461 -51.8370 -51.8370
   -11.2385 -11.2385 -11.2092 -11.1354 -11.1353 -11.1348 -11.1143 -11.1143
   -11.1014 -10.9511 -10.9333 -10.9332 -10.9231 -10.8881 -10.8823 -10.8823
   -10.7970 -10.7970 -10.4796 -10.4796 -10.4637 -10.4637 -10.4525 -10.4525
   -10.4184 -10.4184 -10.3976 -10.3976 -10.3566 -10.3566 -10.3424 -10.2856
   -10.2827  -9.9992  -9.9684  -9.9116  -9.9116  -9.8051  -9.7490  -9.7490
    -9.6370  -9.6370  -9.4368  -9.4368  -9.3479  -9.3479  -9.2567  -9.2567
     1.3256   1.5160   1.5773   2.1384   2.2579   2.8866   4.6630   5.1295
     5.1295   5.1491   5.2549   5.3368   5.3369   5.4429   5.4429   5.5745
     5.5745   5.7711   5.7712   5.8281   5.8281   6.2886   6.2886   6.4743
     6.4793   6.5658   6.7575   6.7751   6.7751   6.9262   6.9262   7.7425
     7.9099   8.1211   8.1211   8.3054   8.3054   8.5539   8.5540   8.7265
     8.8638   9.2544   9.2544   9.3801   9.3801   9.9785   9.9815   9.9815
    10.0849  10.0849  10.1107  10.1108  10.3188  10.4069  10.4997  10.5266
    10.5323  10.6760  10.7843  10.7843  11.0152  11.0152  11.1782  11.1782
    11.2410  11.2410  11.9202  11.9202  12.0986  12.1276  12.1820  12.2684
    12.2684  12.3221  12.3221  12.4716  12.4717  12.9414  13.0755  13.2276
    15.1792  15.1792  15.5144  15.5144  15.6764  15.6764  15.7772  15.8315
    15.9355  15.9485  15.9485  16.0120  16.7560  16.7560  17.2833  17.2833
    17.5783  17.6227  17.6227  17.6563  17.7159  17.7159  18.2264  18.5227
    18.5227  18.6155  18.6155  19.0186  19.0186  19.9188  20.0139  20.4675
    21.4645  21.4645  21.5159  21.6093  22.6753  22.6753  22.7909  22.7911
    22.8452  22.8452  23.9456  24.1263  24.1265  24.2356  24.2358  24.3583

     occupation numbers 
     1.0000   1.0000   1.0000   1.0000   1.0000   1.0000   1.0000   1.0000
     1.0000   1.0000   1.0000   1.0000   1.0000   1.0000   1.0000   1.0000
     1.0000   1.0000   1.0000   1.0000   1.0000   1.0000   1.0000   1.0000
     1.0000   1.0000   1.0000   1.0000   1.0000   1.0000   1.0000   1.0000
     1.0000   1.0000   1.0000   1.0000   1.0000   1.0000   1.0000   1.0000
     1.0000   1.0000   1.0000   1.0000   1.0000   1.0000   1.0000   1.0000
     1.0000   1.0000   1.0000   1.0000   1.0000   1.0000   1.0000   1.0000
     1.0000   1.0000   1.0000   1.0000   1.0000   1.0000   1.0000   1.0000
     1.0000   1.0000   1.0000   1.0000   1.0000   1.0000   1.0000   1.0000
     1.0000   1.0000   1.0000   1.0000   1.0000   1.0000   1.0000   1.0000
     1.0000   1.0000   1.0000   1.0000   1.0000   1.0000   1.0000   1.0000
     1.0000   1.0000   1.0000   1.0000   1.0000   1.0000   1.0000   1.0000
     1.0000   1.0000   1.0000   1.0000   1.0000   1.0000   1.0000   1.0000
     1.0000   1.0000   1.0000   1.0000   1.0000   1.0000   1.0000   1.0000
     1.0000   1.0000   1.0000   1.0000   1.0000   1.0000   1.0000   1.0000
     1.0000   1.0000   1.0000   1.0000   1.0000   1.0000   1.0000   1.0000
     1.0000   1.0000   1.0000   1.0000   1.0000   1.0000   1.0000   1.0000
     1.0000   1.0000   1.0000   1.0000   1.0000   1.0000   0.9999   0.9984
     0.9984   0.9914   0.9914   0.7966   0.7965   0.0000   0.0000   0.0000
     0.0000   0.0000   0.0000   0.0000   0.0000   0.0000   0.0000   0.0000
     0.0000   0.0000   0.0000   0.0000   0.0000   0.0000   0.0000   0.0000
     0.0000   0.0000   0.0000   0.0000   0.0000   0.0000   0.0000   0.0000
     0.0000   0.0000   0.0000   0.0000   0.0000   0.0000   0.0000   0.0000
     0.0000   0.0000   0.0000   0.0000   0.0000   0.0000   0.0000   0.0000
     0.0000   0.0000   0.0000   0.0000   0.0000   0.0000   0.0000   0.0000

          k = 0.0000-0.5774 0.0000 (  1796 PWs)   bands (ev):

  -100.7745-100.6057-100.5737-100.4926-100.4062-100.2792 -53.8828 -53.7843
   -53.6928 -53.6214 -53.4934 -53.1748 -53.0872 -53.0787 -53.0171 -52.9975
   -52.9142 -52.8488 -52.8453 -52.5937 -52.4720 -52.0334 -51.9990 -51.6872
   -11.1958 -11.1931 -11.1768 -11.1301 -11.1085 -11.1067 -11.0911 -11.0721
   -11.0622 -10.9948 -10.9536 -10.9055 -10.8953 -10.8751 -10.8686 -10.8465
   -10.8456 -10.7439 -10.4690 -10.4603 -10.4544 -10.4486 -10.4383 -10.4327
   -10.4151 -10.3926 -10.3892 -10.3789 -10.3605 -10.3500 -10.3065 -10.2793
   -10.1826 -10.1357 -10.1302 -10.0059  -9.9469  -9.8156  -9.7988  -9.6910
    -9.6242  -9.5539  -9.4827  -9.4273  -9.4124  -9.3474  -9.3042  -9.2250
     1.4031   1.5555   1.5654   1.7575   1.8009   1.9570   4.6096   4.8789
     4.9138   5.0196   5.2682   5.3585   5.4349   5.4659   5.5708   5.9250
     5.9962   6.3524   6.3884   6.4609   6.4757   6.5052   6.5240   6.8319
     7.0076   7.3030   7.3135   7.3205   7.4348   7.8088   7.8127   7.8340
     7.9463   8.0632   8.0874   8.1019   8.5477   8.6364   8.6626   8.8271
     8.9435   8.9802   9.0063   9.1804   9.2444   9.5030   9.6059   9.6223
     9.6408   9.6613   9.8184   9.8609   9.9023  10.0098  10.2212  10.5305
    10.6125  10.6475  10.6647  10.8715  11.0302  11.0723  11.1421  11.2034
    11.2513  11.2785  11.4478  11.4809  11.6235  11.7946  11.9410  12.1663
    12.3984  12.4697  12.5394  12.6237  13.2715  13.4353  13.6509  13.8077
    14.7689  15.0466  15.0791  15.0806  15.1893  15.6205  15.6431  15.7674
    15.8527  15.9885  16.2356  16.3749  16.5237  16.6698  16.6761  16.7097
    16.9599  17.0389  17.1172  17.7573  17.9031  17.9420  18.0498  18.0914
    18.3669  18.3759  18.4341  18.4445  20.6310  20.7353  21.2081  21.2262
    21.3017  22.1226  22.4325  22.7968  22.8518  23.1137  23.1923  23.3449
    23.3882  23.4448  24.0774  24.1411  24.2548  24.2936  24.3613  24.4700

     occupation numbers 
     1.0000   1.0000   1.0000   1.0000   1.0000   1.0000   1.0000   1.0000
     1.0000   1.0000   1.0000   1.0000   1.0000   1.0000   1.0000   1.0000
     1.0000   1.0000   1.0000   1.0000   1.0000   1.0000   1.0000   1.0000
     1.0000   1.0000   1.0000   1.0000   1.0000   1.0000   1.0000   1.0000
     1.0000   1.0000   1.0000   1.0000   1.0000   1.0000   1.0000   1.0000
     1.0000   1.0000   1.0000   1.0000   1.0000   1.0000   1.0000   1.0000
     1.0000   1.0000   1.0000   1.0000   1.0000   1.0000   1.0000   1.0000
     1.0000   1.0000   1.0000   1.0000   1.0000   1.0000   1.0000   1.0000
     1.0000   1.0000   1.0000   1.0000   1.0000   1.0000   1.0000   1.0000
     1.0000   1.0000   1.0000   1.0000   1.0000   1.0000   1.0000   1.0000
     1.0000   1.0000   1.0000   1.0000   1.0000   1.0000   1.0000   1.0000
     1.0000   1.0000   1.0000   1.0000   1.0000   1.0000   1.0000   1.0000
     1.0000   1.0000   1.0000   1.0000   1.0000   1.0000   1.0000   1.0000
     1.0000   1.0000   1.0000   1.0000   1.0000   1.0000   1.0000   1.0000
     1.0000   1.0000   1.0000   1.0000   1.0000   1.0000   1.0000   1.0000
     1.0000   1.0000   1.0000   1.0000   1.0000   1.0000   1.0000   1.0000
     1.0000   1.0000   1.0000   1.0000   1.0000   1.0000   1.0000   1.0000
     1.0000   1.0000   1.0000   1.0000   1.0000   1.0000   1.0000   1.0000
     0.9442   0.8024   0.5497   0.2263   0.0000   0.0000   0.0000   0.0000
     0.0000   0.0000   0.0000   0.0000   0.0000   0.0000   0.0000   0.0000
     0.0000   0.0000   0.0000   0.0000   0.0000   0.0000   0.0000   0.0000
     0.0000   0.0000   0.0000   0.0000   0.0000   0.0000   0.0000   0.0000
     0.0000   0.0000   0.0000   0.0000   0.0000   0.0000   0.0000   0.0000
     0.0000   0.0000   0.0000   0.0000   0.0000   0.0000   0.0000   0.0000
     0.0000   0.0000   0.0000   0.0000   0.0000   0.0000   0.0000   0.0000

 ------ SPIN DOWN ----------


          k = 0.0000 0.0000 0.0000 (  1799 PWs)   bands (ev):

  -100.9703-100.9260-100.8333-100.4129-100.2777-100.2172 -54.7573 -54.3784
   -54.1018 -54.1018 -53.4542 -53.4542 -53.3020 -53.3020 -53.1635 -52.8563
   -52.4368 -52.4368 -52.4017 -52.3600 -52.1325 -52.1325 -51.8332 -51.8332
   -11.2381 -11.2381 -11.2087 -11.1350 -11.1349 -11.1337 -11.1135 -11.1135
   -11.1003 -10.9503 -10.9328 -10.9327 -10.9227 -10.8874 -10.8818 -10.8818
   -10.7963 -10.7963 -10.4794 -10.4794 -10.4635 -10.4635 -10.4522 -10.4522
   -10.4181 -10.4181 -10.3974 -10.3974 -10.3565 -10.3565 -10.3421 -10.2853
   -10.2826  -9.9987  -9.9680  -9.9111  -9.9111  -9.8045  -9.7481  -9.7481
    -9.6364  -9.6364  -9.4361  -9.4361  -9.3474  -9.3474  -9.2561  -9.2561
     1.3261   1.5167   1.5777   2.1389   2.2585   2.8872   4.6644   5.1321
     5.1321   5.1501   5.2570   5.3397   5.3397   5.4446   5.4447   5.5778
     5.5779   5.7742   5.7743   5.8299   5.8299   6.2901   6.2901   6.4744
     6.4816   6.5667   6.7589   6.7770   6.7770   6.9290   6.9290   7.7435
     7.9113   8.1247   8.1247   8.3069   8.3070   8.5562   8.5562   8.7282
     8.8649   9.2567   9.2568   9.3811   9.3812   9.9812   9.9840   9.9840
    10.0862  10.0863  10.1118  10.1119  10.3179  10.4123  10.5036  10.5294
    10.5363  10.6787  10.7861  10.7861  11.0243  11.0243  11.1852  11.1852
    11.2460  11.2461  11.9285  11.9285  12.0996  12.1354  12.1845  12.2720
    12.2721  12.3336  12.3336  12.4809  12.4809  12.9451  13.0779  13.2340
    15.1854  15.1855  15.5155  15.5156  15.6810  15.6811  15.7777  15.8325
    15.9362  15.9525  15.9526  16.0129  16.7589  16.7589  17.2846  17.2846
    17.5791  17.6238  17.6238  17.6589  17.7168  17.7168  18.2278  18.5241
    18.5241  18.6166  18.6166  19.0196  19.0196  19.9207  20.0190  20.4687
    21.4658  21.4658  21.5188  21.6115  22.6761  22.6762  22.7924  22.7924
    22.8461  22.8462  23.9473  24.1269  24.1275  24.2366  24.2371  24.3610

     occupation numbers 
     1.0000   1.0000   1.0000   1.0000   1.0000   1.0000   1.0000   1.0000
     1.0000   1.0000   1.0000   1.0000   1.0000   1.0000   1.0000   1.0000
     1.0000   1.0000   1.0000   1.0000   1.0000   1.0000   1.0000   1.0000
     1.0000   1.0000   1.0000   1.0000   1.0000   1.0000   1.0000   1.0000
     1.0000   1.0000   1.0000   1.0000   1.0000   1.0000   1.0000   1.0000
     1.0000   1.0000   1.0000   1.0000   1.0000   1.0000   1.0000   1.0000
     1.0000   1.0000   1.0000   1.0000   1.0000   1.0000   1.0000   1.0000
     1.0000   1.0000   1.0000   1.0000   1.0000   1.0000   1.0000   1.0000
     1.0000   1.0000   1.0000   1.0000   1.0000   1.0000   1.0000   1.0000
     1.0000   1.0000   1.0000   1.0000   1.0000   1.0000   1.0000   1.0000
     1.0000   1.0000   1.0000   1.0000   1.0000   1.0000   1.0000   1.0000
     1.0000   1.0000   1.0000   1.0000   1.0000   1.0000   1.0000   1.0000
     1.0000   1.0000   1.0000   1.0000   1.0000   1.0000   1.0000   1.0000
     1.0000   1.0000   1.0000   1.0000   1.0000   1.0000   1.0000   1.0000
     1.0000   1.0000   1.0000   1.0000   1.0000   1.0000   1.0000   1.0000
     1.0000   1.0000   1.0000   1.0000   1.0000   1.0000   1.0000   1.0000
     1.0000   1.0000   1.0000   1.0000   1.0000   1.0000   1.0000   1.0000
     1.0000   1.0000   1.0000   1.0000   1.0000   1.0000   0.9999   0.9982
     0.9982   0.9882   0.9882   0.7684   0.7683   0.0000   0.0000   0.0000
     0.0000   0.0000   0.0000   0.0000   0.0000   0.0000   0.0000   0.0000
     0.0000   0.0000   0.0000   0.0000   0.0000   0.0000   0.0000   0.0000
     0.0000   0.0000   0.0000   0.0000   0.0000   0.0000   0.0000   0.0000
     0.0000   0.0000   0.0000   0.0000   0.0000   0.0000   0.0000   0.0000
     0.0000   0.0000   0.0000   0.0000   0.0000   0.0000   0.0000   0.0000
     0.0000   0.0000   0.0000   0.0000   0.0000   0.0000   0.0000   0.0000

          k = 0.0000-0.5774 0.0000 (  1796 PWs)   bands (ev):

  -100.7694-100.5986-100.5642-100.4814-100.4018-100.2721 -53.8770 -53.7779
   -53.6888 -53.6166 -53.4796 -53.1714 -53.0742 -53.0699 -53.0096 -52.9923
   -52.9041 -52.8438 -52.8337 -52.5902 -52.4589 -52.0280 -51.9940 -51.6789
   -11.1958 -11.1927 -11.1757 -11.1301 -11.1074 -11.1055 -11.0908 -11.0714
   -11.0616 -10.9943 -10.9531 -10.9054 -10.8946 -10.8745 -10.8676 -10.8480
   -10.8425 -10.7432 -10.4682 -10.4608 -10.4548 -10.4476 -10.4383 -10.4323
   -10.4148 -10.3924 -10.3891 -10.3788 -10.3601 -10.3498 -10.3063 -10.2789
   -10.1821 -10.1352 -10.1298 -10.0053  -9.9464  -9.8151  -9.7979  -9.6904
    -9.6235  -9.5532  -9.4824  -9.4264  -9.4118  -9.3469  -9.3037  -9.2244
     1.4037   1.5563   1.5660   1.7582   1.8017   1.9576   4.6115   4.8810
     4.9155   5.0232   5.2699   5.3604   5.4386   5.4673   5.5733   5.9272
     5.9979   6.3544   6.3903   6.4633   6.4776   6.5077   6.5261   6.8336
     7.0093   7.3055   7.3155   7.3225   7.4365   7.8111   7.8143   7.8353
     7.9490   8.0645   8.0894   8.1034   8.5493   8.6388   8.6641   8.8301
     8.9454   8.9817   9.0075   9.1824   9.2457   9.5046   9.6083   9.6245
     9.6428   9.6633   9.8215   9.8622   9.9062  10.0120  10.2237  10.5341
    10.6158  10.6514  10.6687  10.8766  11.0332  11.0774  11.1502  11.2082
    11.2577  11.2866  11.4510  11.4911  11.6274  11.7986  11.9499  12.1732
    12.4024  12.4777  12.5452  12.6302  13.2794  13.4414  13.6559  13.8101
    14.7744  15.0477  15.0830  15.0861  15.1912  15.6223  15.6482  15.7694
    15.8553  15.9902  16.2373  16.3779  16.5269  16.6706  16.6789  16.7123
    16.9629  17.0412  17.1196  17.7581  17.9040  17.9429  18.0508  18.0922
    18.3681  18.3770  18.4374  18.4431  20.6338  20.7387  21.2140  21.2280
    21.3038  22.1250  22.4336  22.7977  22.8533  23.1152  23.1933  23.3458
    23.3891  23.4455  24.0787  24.1411  24.2548  24.2940  24.3623  24.4708

     occupation numbers 
     1.0000   1.0000   1.0000   1.0000   1.0000   1.0000   1.0000   1.0000
     1.0000   1.0000   1.0000   1.0000   1.0000   1.0000   1.0000   1.0000
     1.0000   1.0000   1.0000   1.0000   1.0000   1.0000   1.0000   1.0000
     1.0000   1.0000   1.0000   1.0000   1.0000   1.0000   1.0000   1.0000
     1.0000   1.0000   1.0000   1.0000   1.0000   1.0000   1.0000   1.0000
     1.0000   1.0000   1.0000   1.0000   1.0000   1.0000   1.0000   1.0000
     1.0000   1.0000   1.0000   1.0000   1.0000   1.0000   1.0000   1.0000
     1.0000   1.0000   1.0000   1.0000   1.0000   1.0000   1.0000   1.0000
     1.0000   1.0000   1.0000   1.0000   1.0000   1.0000   1.0000   1.0000
     1.0000   1.0000   1.0000   1.0000   1.0000   1.0000   1.0000   1.0000
     1.0000   1.0000   1.0000   1.0000   1.0000   1.0000   1.0000   1.0000
     1.0000   1.0000   1.0000   1.0000   1.0000   1.0000   1.0000   1.0000
     1.0000   1.0000   1.0000   1.0000   1.0000   1.0000   1.0000   1.0000
     1.0000   1.0000   1.0000   1.0000   1.0000   1.0000   1.0000   1.0000
     1.0000   1.0000   1.0000   1.0000   1.0000   1.0000   1.0000   1.0000
     1.0000   1.0000   1.0000   1.0000   1.0000   1.0000   1.0000   1.0000
     1.0000   1.0000   1.0000   1.0000   1.0000   1.0000   1.0000   1.0000
     1.0000   1.0000   1.0000   1.0000   1.0000   1.0000   1.0000   1.0000
     0.9393   0.7784   0.5259   0.2065   0.0000   0.0000   0.0000   0.0000
     0.0000   0.0000   0.0000   0.0000   0.0000   0.0000   0.0000   0.0000
     0.0000   0.0000   0.0000   0.0000   0.0000   0.0000   0.0000   0.0000
     0.0000   0.0000   0.0000   0.0000   0.0000   0.0000   0.0000   0.0000
     0.0000   0.0000   0.0000   0.0000   0.0000   0.0000   0.0000   0.0000
     0.0000   0.0000   0.0000   0.0000   0.0000   0.0000   0.0000   0.0000
     0.0000   0.0000   0.0000   0.0000   0.0000   0.0000   0.0000   0.0000

     the Fermi energy is    12.5515 ev

!    total energy              =   -3070.98894222 Ry
     estimated scf accuracy    <       0.00086293 Ry
     smearing contrib. (-TS)   =      -0.01391605 Ry
     internal energy E=F+TS    =   -3070.97502617 Ry

     The total energy is F=E-TS. E is the sum of the following terms:
     one-electron contribution =   -1050.15899362 Ry
     hartree contribution      =     664.11386607 Ry
     xc contribution           =    -657.28075691 Ry
     ewald contribution        =   -2027.64914171 Ry

     total magnetization       =     0.07 Bohr mag/cell
     absolute magnetization    =     0.93 Bohr mag/cell

     convergence has been achieved in  18 iterations

     Writing output data file /home/aldair1809/Documentos/QE/4BFO/UHUBBARD/temp/pseudo_o_pbesol_v1.2.uspp.F.UPF_ecutwfc_12.in/bifeo3-scf.save/

     init_run     :      3.05s CPU      3.13s WALL (       1 calls)
     electrons    :    199.12s CPU    205.40s WALL (       1 calls)

     Called by init_run:
     wfcinit      :      2.65s CPU      2.70s WALL (       1 calls)
     wfcinit:atom :      0.00s CPU      0.00s WALL (       4 calls)
     wfcinit:wfcr :      2.61s CPU      2.66s WALL (       4 calls)
     potinit      :      0.06s CPU      0.06s WALL (       1 calls)
     hinit0       :      0.23s CPU      0.23s WALL (       1 calls)

     Called by electrons:
     c_bands      :    182.44s CPU    188.30s WALL (      18 calls)
     sum_band     :     14.21s CPU     14.61s WALL (      18 calls)
     v_of_rho     :      0.25s CPU      0.27s WALL (      19 calls)
     v_h          :      0.01s CPU      0.01s WALL (      19 calls)
     v_xc         :      0.25s CPU      0.27s WALL (      19 calls)
     newd         :      2.25s CPU      2.29s WALL (      19 calls)
     mix_rho      :      0.06s CPU      0.06s WALL (      18 calls)

     Called by c_bands:
     init_us_2    :      0.28s CPU      0.29s WALL (     148 calls)
     ccgdiagg     :    137.87s CPU    142.97s WALL (      72 calls)
     wfcrot       :     46.90s CPU     47.69s WALL (      72 calls)

     Called by sum_band:
     sum_band:wei :      0.02s CPU      0.02s WALL (      18 calls)
     sum_band:loo :     11.63s CPU     12.01s WALL (      18 calls)
     sum_band:buf :      0.05s CPU      0.05s WALL (      72 calls)
     sum_band:ini :      0.14s CPU      0.14s WALL (      72 calls)
     sum_band:cal :      8.74s CPU      8.81s WALL (      72 calls)
     sum_band:bec :      0.37s CPU      0.37s WALL (      72 calls)
     addusdens    :      2.38s CPU      2.38s WALL (      18 calls)
     addusd:skk   :      0.01s CPU      0.01s WALL (      72 calls)
     addusd:dgemm :      1.05s CPU      1.06s WALL (     144 calls)
     addusd:qvan2 :      1.28s CPU      1.28s WALL (     144 calls)

     Called by *cgdiagg:
     h_psi        :     79.30s CPU     83.30s WALL (   31666 calls)
     s_psi        :     51.93s CPU     52.82s WALL (   63260 calls)

     Called by h_psi:
     h_psi:calbec :     30.50s CPU     32.63s WALL (   31666 calls)
     vloc_psi     :     17.39s CPU     18.70s WALL (   31666 calls)
     add_vuspsi   :     30.85s CPU     31.47s WALL (   31666 calls)
     hs_1psi      :     78.48s CPU     82.10s WALL (   31594 calls)
     s_1psi       :     42.97s CPU     44.21s WALL (   31594 calls)

     General routines
     calbec       :     60.34s CPU     63.42s WALL (   63332 calls)
     fft          :      0.09s CPU      0.10s WALL (     397 calls)
     ffts         :      0.01s CPU      0.01s WALL (      36 calls)
     fftw         :     17.57s CPU     19.04s WALL (  106420 calls)

     Parallel routines
     fft_scatt_xy :      1.88s CPU      2.03s WALL (  106853 calls)
     fft_scatt_yz :      4.52s CPU      4.96s WALL (  106853 calls)

     PWSCF        :   3m22.55s CPU   3m28.99s WALL


   This run was terminated on:  21:35:43  28Sep2024            

=------------------------------------------------------------------------------=
   JOB DONE.
=------------------------------------------------------------------------------=
