
     Program PWSCF v.6.7MaX starts on 28Sep2024 at 21:21: 1 

     This program is part of the open-source Quantum ESPRESSO suite
     for quantum simulation of materials; please cite
         "P. Giannozzi et al., J. Phys.:Condens. Matter 21 395502 (2009);
         "P. Giannozzi et al., J. Phys.:Condens. Matter 29 465901 (2017);
          URL http://www.quantum-espresso.org", 
     in publications or presentations arising from this work. More details at
     http://www.quantum-espresso.org/quote

     Parallel version (MPI), running on     4 processors

     MPI processes distributed on     1 nodes
     R & G space division:  proc/nbgrp/npool/nimage =       4
     Waiting for input...
     Reading input from standard input

     Current dimensions of program PWSCF are:
     Max number of different atomic species (ntypx) = 10
     Max number of k-points (npk) =  40000
     Max angular momentum in pseudopotentials (lmaxx) =  3
     Message from routine iosys:
     wrong startingpot: use default (1)

     Subspace diagonalization in iterative solution of the eigenvalue problem:
     one sub-group per band group will be used
     scalapack distributed-memory algorithm (size of sub-group:  2*  2 procs)

     Message from routine setup:
     using ibrav=0 with symmetry is DISCOURAGED, use correct ibrav instead

     Parallelization info
     --------------------
     sticks:   dense  smooth     PW     G-vecs:    dense   smooth      PW
     Min         149     149     44                 7638     7638    1187
     Max         160     160     49                 7639     7639    1188
     Sum         613     613    187                30555    30555    4751



     bravais-lattice index     =            0
     lattice parameter (alat)  =      10.5468  a.u.
     unit-cell volume          =    2535.5110 (a.u.)^3
     number of atoms/cell      =           30
     number of atomic types    =            4
     number of electrons       =       294.00
     number of Kohn-Sham states=          200
     kinetic-energy cutoff     =      20.0000  Ry
     charge density cutoff     =      80.0000  Ry
     scf convergence threshold =      1.0E-03
     mixing beta               =       0.2000
     number of iterations used =            8  plain     mixing
     Exchange-correlation=  SLA  PW   PBX  PBC
                           (   1   4   3   4   0   0   0)

     celldm(1)=  10.546849  celldm(2)=   0.000000  celldm(3)=   0.000000
     celldm(4)=   0.000000  celldm(5)=   0.000000  celldm(6)=   0.000000

     crystal axes: (cart. coord. in units of alat)
               a(1) = (   1.000000  -0.000000  -0.000000 )  
               a(2) = (  -0.500000   0.866025  -0.000000 )  
               a(3) = (   0.000000  -0.000000   2.495552 )  

     reciprocal axes: (cart. coord. in units 2 pi/alat)
               b(1) = (  1.000000  0.577350  0.000000 )  
               b(2) = (  0.000000  1.154701  0.000000 )  
               b(3) = (  0.000000  0.000000  0.400713 )  


     PseudoPot. # 1 for O  read from file:
     /home/aldair1809/Programas/QE/q-e-qe-7.3/pseudo/o_pbe_v1.2.uspp.F.UPF
     MD5 check sum: 734c27235a0248c51dbae37a1fbe46ec
     Pseudo is Ultrasoft + core correction, Zval =  6.0
     Generated by new atomic code, or converted to UPF format
     Using radial grid of  737 points,  5 beta functions with: 
                l(1) =   0
                l(2) =   0
                l(3) =   1
                l(4) =   1
                l(5) =   2
     Q(r) pseudized with  8 coefficients,  rinner =    0.900   0.900   0.900
                                                       0.900   0.900

     PseudoPot. # 2 for Bi read from file:
     /home/aldair1809/Programas/QE/q-e-qe-7.3/pseudo/bi_pbe_v1.uspp.F.UPF
     MD5 check sum: cceb9f28ec65b6d7ff33140f5b0b1758
     Pseudo is Ultrasoft + core correction, Zval = 15.0
     Generated by new atomic code, or converted to UPF format
     Using radial grid of  899 points,  6 beta functions with: 
                l(1) =   0
                l(2) =   0
                l(3) =   1
                l(4) =   1
                l(5) =   2
                l(6) =   2
     Q(r) pseudized with  6 coefficients,  rinner =    1.000   1.000   1.000
                                                       1.000   1.000

     PseudoPot. # 3 for Fe read from file:
     /home/aldair1809/Programas/QE/q-e-qe-7.3/pseudo/fe_pbe_v1.5.uspp.F.UPF
     MD5 check sum: a130daea23fe5165f5d574ae7f82ed95
     Pseudo is Ultrasoft + core correction, Zval = 16.0
     Generated by new atomic code, or converted to UPF format
     Using radial grid of  861 points,  6 beta functions with: 
                l(1) =   0
                l(2) =   0
                l(3) =   1
                l(4) =   1
                l(5) =   2
                l(6) =   2
     Q(r) pseudized with  8 coefficients,  rinner =    1.000   1.000   1.000
                                                       1.000   1.000

     PseudoPot. # 4 for Fe read from file:
     /home/aldair1809/Programas/QE/q-e-qe-7.3/pseudo/fe_pbe_v1.5.uspp.F.UPF
     MD5 check sum: a130daea23fe5165f5d574ae7f82ed95
     Pseudo is Ultrasoft + core correction, Zval = 16.0
     Generated by new atomic code, or converted to UPF format
     Using radial grid of  861 points,  6 beta functions with: 
                l(1) =   0
                l(2) =   0
                l(3) =   1
                l(4) =   1
                l(5) =   2
                l(6) =   2
     Q(r) pseudized with  8 coefficients,  rinner =    1.000   1.000   1.000
                                                       1.000   1.000

     atomic species   valence    mass     pseudopotential
        O              6.00    15.99940     O ( 1.00)
        Bi            15.00   208.98040     Bi( 1.00)
        Fe1           16.00    55.84500     Fe( 1.00)
        Fe2           16.00    55.84500     Fe( 1.00)

     Starting magnetic structure 
     atomic species   magnetization
        O            0.000
        Bi           0.000
        Fe1         -0.800
        Fe2          0.800

      3 Sym. Ops. (no inversion) found


                                    s                        frac. trans.

      isym =  1     identity                                     

 cryst.   s( 1) = (     1          0          0      )
                  (     0          1          0      )
                  (     0          0          1      )

 cart.    s( 1) = (  1.0000000 -0.0000000  0.0000000 )
                  (  0.0000000  1.0000000  0.0000000 )
                  (  0.0000000  0.0000000  1.0000000 )


      isym =  2     120 deg rotation - cryst. axis [0,0,1]       

 cryst.   s( 2) = (     0          1          0      )
                  (    -1         -1          0      )
                  (     0          0          1      )

 cart.    s( 2) = ( -0.5000000 -0.8660254  0.0000000 )
                  (  0.8660254 -0.5000000  0.0000000 )
                  (  0.0000000  0.0000000  1.0000000 )


      isym =  3     120 deg rotation - cryst. axis [0,0,-1]      

 cryst.   s( 3) = (    -1         -1          0      )
                  (     1          0          0      )
                  (     0          0          1      )

 cart.    s( 3) = ( -0.5000000  0.8660254  0.0000000 )
                  ( -0.8660254 -0.5000000  0.0000000 )
                  (  0.0000000  0.0000000  1.0000000 )


   Cartesian axes

     site n.     atom                  positions (alat units)
         1           Fe1 tau(   1) = (   0.0000000   0.0000000   1.9384582  )
         2           Fe1 tau(   2) = (  -0.0000005   0.5773506   2.3615556  )
         3           Fe1 tau(   3) = (   0.5000005   0.2886748   1.5200787  )
         4           Fe2 tau(   4) = (   0.5000005   0.2886748   0.2722626  )
         5           Fe2 tau(   5) = (   0.0000000   0.0000000   0.6907071  )
         6           Fe2 tau(   6) = (  -0.0000005   0.5773506   1.1137452  )
         7           Bi  tau(   7) = (   0.5000005   0.2886748   2.0843143  )
         8           Bi  tau(   8) = (  -0.0000005   0.5773506   1.6713980  )
         9           Bi  tau(   9) = (  -0.0000005   0.5773506   0.4235448  )
        10           Bi  tau(  10) = (   0.0000000   0.0000000   0.0002821  )
        11           Bi  tau(  11) = (   0.0000000   0.0000000   1.2481025  )
        12           Bi  tau(  12) = (   0.5000005   0.2886748   0.8364865  )
        13           O   tau(  13) = (  -0.3105904   0.6551932   2.2011299  )
        14           O   tau(  14) = (   0.0878817   0.2694488   2.2011299  )
        15           O   tau(  15) = (   0.2227102   0.8074080   2.2011299  )
        16           O   tau(  16) = (   0.4087504   0.5589755   1.7846473  )
        17           O   tau(  17) = (   0.3115373   0.0745013   1.7846473  )
        18           O   tau(  18) = (   0.7797108   0.2325494   1.7846473  )
        19           O   tau(  19) = (   0.6884743   0.0745026   0.5368244  )
        20           O   tau(  20) = (   0.5912412   0.5589858   0.5368244  )
        21           O   tau(  21) = (   0.2202830   0.2325379   0.5368244  )
        22           O   tau(  22) = (  -0.0823010   0.8482993   0.1166193  )
        23           O   tau(  23) = (  -0.1934983   0.3706010   0.1166193  )
        24           O   tau(  24) = (   0.2757993   0.5131505   0.1166193  )
        25           O   tau(  25) = (   0.1934855   0.3705936   1.3644430  )
        26           O   tau(  26) = (   0.0823138   0.8482919   1.3644430  )
        27           O   tau(  27) = (  -0.2757993   0.5131653   1.3644430  )
        28           O   tau(  28) = (  -0.0878870   0.2694458   0.9533686  )
        29           O   tau(  29) = (   0.3105971   0.6551893   0.9533686  )
        30           O   tau(  30) = (  -0.2227086   0.8074149   0.9533686  )

   Crystallographic axes

     site n.     atom                  positions (cryst. coord.)
         1           Fe1 tau(   1) = (  0.0000000  0.0000000  0.7767652  )
         2           Fe1 tau(   2) = (  0.3333330  0.6666670  0.9463058  )
         3           Fe1 tau(   3) = (  0.6666670  0.3333330  0.6091152  )
         4           Fe2 tau(   4) = (  0.6666670  0.3333330  0.1090991  )
         5           Fe2 tau(   5) = (  0.0000000  0.0000000  0.2767753  )
         6           Fe2 tau(   6) = (  0.3333330  0.6666670  0.4462921  )
         7           Bi  tau(   7) = (  0.6666670  0.3333330  0.8352117  )
         8           Bi  tau(   8) = (  0.3333330  0.6666670  0.6697508  )
         9           Bi  tau(   9) = (  0.3333330  0.6666670  0.1697199  )
        10           Bi  tau(  10) = (  0.0000000  0.0000000  0.0001130  )
        11           Bi  tau(  11) = (  0.0000000  0.0000000  0.5001308  )
        12           Bi  tau(  12) = (  0.6666670  0.3333330  0.3351910  )
        13           O   tau(  13) = (  0.0676856  0.7565520  0.8820212  )
        14           O   tau(  14) = (  0.2434480  0.3111326  0.8820212  )
        15           O   tau(  15) = (  0.6888674  0.9323144  0.8820212  )
        16           O   tau(  16) = (  0.7314750  0.6454493  0.7151312  )
        17           O   tau(  17) = (  0.3545507  0.0860267  0.7151312  )
        18           O   tau(  18) = (  0.9139733  0.2685250  0.7151312  )
        19           O   tau(  19) = (  0.7314884  0.0860282  0.2151125  )
        20           O   tau(  20) = (  0.9139718  0.6454612  0.2151125  )
        21           O   tau(  21) = (  0.3545388  0.2685116  0.2151125  )
        22           O   tau(  22) = (  0.4074649  0.9795317  0.0467309  )
        23           O   tau(  23) = (  0.0204683  0.4279331  0.0467309  )
        24           O   tau(  24) = (  0.5720669  0.5925351  0.0467309  )
        25           O   tau(  25) = (  0.4074478  0.4279246  0.5467499  )
        26           O   tau(  26) = (  0.5720754  0.9795232  0.5467499  )
        27           O   tau(  27) = (  0.0204768  0.5925522  0.5467499  )
        28           O   tau(  28) = (  0.0676775  0.3111292  0.3820271  )
        29           O   tau(  29) = (  0.6888708  0.7565474  0.3820271  )
        30           O   tau(  30) = (  0.2434526  0.9323225  0.3820271  )

     number of k points=     2  Gaussian smearing, width (Ry)=  0.0100
                       cart. coord. in units 2pi/alat
        k(    1) = (   0.0000000   0.0000000   0.0000000), wk =   0.2500000
        k(    2) = (   0.0000000  -0.5773503   0.0000000), wk =   0.7500000

                       cryst. coord.
        k(    1) = (   0.0000000   0.0000000   0.0000000), wk =   0.2500000
        k(    2) = (   0.0000000  -0.5000000   0.0000000), wk =   0.7500000

     Dense  grid:    30555 G-vectors     FFT dimensions: (  32,  32,  75)

     Dynamical RAM for                 wfc:       2.92 MB

     Dynamical RAM for     wfc (w. buffer):      14.60 MB

     Dynamical RAM for           str. fact:       0.47 MB

     Dynamical RAM for           local pot:       0.00 MB

     Dynamical RAM for          nlocal pot:       6.57 MB

     Dynamical RAM for                qrad:       2.88 MB

     Dynamical RAM for          rho,v,vnew:       1.59 MB

     Dynamical RAM for               rhoin:       0.53 MB

     Dynamical RAM for            rho*nmix:       3.73 MB

     Dynamical RAM for           G-vectors:       0.50 MB

     Dynamical RAM for          h,s,v(r/c):       0.46 MB

     Dynamical RAM for          <psi|beta>:       1.37 MB

     Dynamical RAM for      wfcinit/wfcrot:       6.91 MB

     Dynamical RAM for           addusdens:      23.89 MB

     Estimated static dynamical RAM per process >      32.34 MB

     Estimated max dynamical RAM per process >      56.23 MB

     Estimated total dynamical RAM >     224.91 MB

     Check: negative core charge=   -0.001352
     Generating pointlists ...
     new r_m :   0.1458 (alat units)  1.5374 (a.u.) for type    1
     new r_m :   0.1687 (alat units)  1.7788 (a.u.) for type    2
     new r_m :   0.1458 (alat units)  1.5374 (a.u.) for type    3
     new r_m :   0.1458 (alat units)  1.5374 (a.u.) for type    4

     Initial potential from superposition of free atoms

     starting charge  281.99969, renormalised to  294.00000

     negative rho (up, down):  1.323E-01 1.324E-01
     Starting wfcs are  204 randomized atomic wfcs

     total cpu time spent up to now is        6.8 secs

     Self-consistent Calculation

     iteration #  1     ecut=    20.00 Ry     beta= 0.20
     CG style diagonalization
     ethr =  1.00E-02,  avg # of iterations =  2.8

     negative rho (up, down):  1.263E-01 1.265E-01

     total cpu time spent up to now is       30.7 secs

     total energy              =   -3178.67504425 Ry
     estimated scf accuracy    <      25.59953727 Ry

     total magnetization       =     0.00 Bohr mag/cell
     absolute magnetization    =    30.56 Bohr mag/cell

     iteration #  2     ecut=    20.00 Ry     beta= 0.20
     CG style diagonalization
     ethr =  8.71E-03,  avg # of iterations =  3.0

     negative rho (up, down):  1.192E-01 1.195E-01

     total cpu time spent up to now is       53.2 secs

     total energy              =   -3180.64906743 Ry
     estimated scf accuracy    <      11.99992038 Ry

     total magnetization       =    -0.00 Bohr mag/cell
     absolute magnetization    =    30.20 Bohr mag/cell

     iteration #  3     ecut=    20.00 Ry     beta= 0.20
     CG style diagonalization
     ethr =  4.08E-03,  avg # of iterations =  3.4

     negative rho (up, down):  1.181E-01 1.184E-01

     total cpu time spent up to now is       79.0 secs

     total energy              =   -3187.29963522 Ry
     estimated scf accuracy    <      22.01634819 Ry

     total magnetization       =     0.08 Bohr mag/cell
     absolute magnetization    =    19.34 Bohr mag/cell

     iteration #  4     ecut=    20.00 Ry     beta= 0.20
     CG style diagonalization
     ethr =  4.08E-03,  avg # of iterations =  3.0

     negative rho (up, down):  1.193E-01 1.195E-01

     total cpu time spent up to now is      101.2 secs

     total energy              =   -3185.44007921 Ry
     estimated scf accuracy    <      92.13013018 Ry

     total magnetization       =    -0.07 Bohr mag/cell
     absolute magnetization    =     6.61 Bohr mag/cell

     iteration #  5     ecut=    20.00 Ry     beta= 0.20
     CG style diagonalization
     ethr =  4.08E-03,  avg # of iterations =  3.0

     negative rho (up, down):  1.200E-01 1.202E-01

     total cpu time spent up to now is      123.4 secs

     total energy              =   -3184.21983577 Ry
     estimated scf accuracy    <      45.44522963 Ry

     total magnetization       =    -0.10 Bohr mag/cell
     absolute magnetization    =    11.95 Bohr mag/cell

     iteration #  6     ecut=    20.00 Ry     beta= 0.20
     CG style diagonalization
     ethr =  4.08E-03,  avg # of iterations =  3.0

     negative rho (up, down):  1.202E-01 1.203E-01

     total cpu time spent up to now is      145.6 secs

     total energy              =   -3184.32171473 Ry
     estimated scf accuracy    <      23.53659969 Ry

     total magnetization       =    -1.50 Bohr mag/cell
     absolute magnetization    =    17.07 Bohr mag/cell

     iteration #  7     ecut=    20.00 Ry     beta= 0.20
     CG style diagonalization
     ethr =  4.08E-03,  avg # of iterations =  3.0

     negative rho (up, down):  1.206E-01 1.207E-01

     total cpu time spent up to now is      168.2 secs

     total energy              =   -3184.11971570 Ry
     estimated scf accuracy    <      15.43154820 Ry

     total magnetization       =     0.49 Bohr mag/cell
     absolute magnetization    =    18.33 Bohr mag/cell

     iteration #  8     ecut=    20.00 Ry     beta= 0.20
     CG style diagonalization
     ethr =  4.08E-03,  avg # of iterations =  3.0

     negative rho (up, down):  1.208E-01 1.209E-01

     total cpu time spent up to now is      190.4 secs

     total energy              =   -3184.07387635 Ry
     estimated scf accuracy    <       9.36574544 Ry

     total magnetization       =    -1.50 Bohr mag/cell
     absolute magnetization    =    20.51 Bohr mag/cell

     iteration #  9     ecut=    20.00 Ry     beta= 0.20
     CG style diagonalization
     ethr =  3.19E-03,  avg # of iterations =  3.0

     negative rho (up, down):  1.211E-01 1.212E-01

     total cpu time spent up to now is      212.5 secs

     total energy              =   -3183.99518928 Ry
     estimated scf accuracy    <       7.46803628 Ry

     total magnetization       =    -0.34 Bohr mag/cell
     absolute magnetization    =    21.29 Bohr mag/cell

     iteration # 10     ecut=    20.00 Ry     beta= 0.20
     CG style diagonalization
     ethr =  2.54E-03,  avg # of iterations =  3.0

     negative rho (up, down):  1.214E-01 1.215E-01

     total cpu time spent up to now is      234.6 secs

     total energy              =   -3183.90956961 Ry
     estimated scf accuracy    <       3.36855675 Ry

     total magnetization       =    -0.10 Bohr mag/cell
     absolute magnetization    =    22.56 Bohr mag/cell

     iteration # 11     ecut=    20.00 Ry     beta= 0.20
     CG style diagonalization
     ethr =  1.15E-03,  avg # of iterations =  3.0

     negative rho (up, down):  1.220E-01 1.220E-01

     total cpu time spent up to now is      257.2 secs

     total energy              =   -3183.85840612 Ry
     estimated scf accuracy    <       1.09645373 Ry

     total magnetization       =    -0.12 Bohr mag/cell
     absolute magnetization    =    24.76 Bohr mag/cell

     iteration # 12     ecut=    20.00 Ry     beta= 0.20
     CG style diagonalization
     ethr =  3.73E-04,  avg # of iterations =  3.0

     negative rho (up, down):  1.221E-01 1.221E-01

     total cpu time spent up to now is      279.7 secs

     total energy              =   -3183.91770354 Ry
     estimated scf accuracy    <       0.11352539 Ry

     total magnetization       =     0.00 Bohr mag/cell
     absolute magnetization    =    26.70 Bohr mag/cell

     iteration # 13     ecut=    20.00 Ry     beta= 0.20
     CG style diagonalization
     c_bands:  1 eigenvalues not converged
     c_bands:  3 eigenvalues not converged
     ethr =  3.86E-05,  avg # of iterations =  3.3

     negative rho (up, down):  1.222E-01 1.222E-01

     total cpu time spent up to now is      304.7 secs

     total energy              =   -3183.93052496 Ry
     estimated scf accuracy    <       0.06936976 Ry

     total magnetization       =     0.03 Bohr mag/cell
     absolute magnetization    =    26.65 Bohr mag/cell

     iteration # 14     ecut=    20.00 Ry     beta= 0.20
     CG style diagonalization
     ethr =  2.36E-05,  avg # of iterations =  3.1

     negative rho (up, down):  1.222E-01 1.222E-01

     total cpu time spent up to now is      328.1 secs

     total energy              =   -3183.94574113 Ry
     estimated scf accuracy    <       0.08346729 Ry

     total magnetization       =     0.08 Bohr mag/cell
     absolute magnetization    =    27.00 Bohr mag/cell

     iteration # 15     ecut=    20.00 Ry     beta= 0.20
     CG style diagonalization
     ethr =  2.36E-05,  avg # of iterations =  3.0

     negative rho (up, down):  1.221E-01 1.221E-01

     total cpu time spent up to now is      351.0 secs

     total energy              =   -3183.95776209 Ry
     estimated scf accuracy    <       0.03494703 Ry

     total magnetization       =     0.03 Bohr mag/cell
     absolute magnetization    =    27.27 Bohr mag/cell

     iteration # 16     ecut=    20.00 Ry     beta= 0.20
     CG style diagonalization
     c_bands:  2 eigenvalues not converged
     ethr =  1.19E-05,  avg # of iterations =  3.1

     negative rho (up, down):  1.220E-01 1.220E-01

     total cpu time spent up to now is      374.0 secs

     total energy              =   -3183.96110493 Ry
     estimated scf accuracy    <       0.02446155 Ry

     total magnetization       =     0.01 Bohr mag/cell
     absolute magnetization    =    27.34 Bohr mag/cell

     iteration # 17     ecut=    20.00 Ry     beta= 0.20
     CG style diagonalization
     c_bands:  1 eigenvalues not converged
     c_bands:  1 eigenvalues not converged
     ethr =  8.32E-06,  avg # of iterations =  3.1

     negative rho (up, down):  1.219E-01 1.219E-01

     total cpu time spent up to now is      397.0 secs

     total energy              =   -3183.96490971 Ry
     estimated scf accuracy    <       0.06558321 Ry

     total magnetization       =     0.00 Bohr mag/cell
     absolute magnetization    =    27.19 Bohr mag/cell

     iteration # 18     ecut=    20.00 Ry     beta= 0.20
     CG style diagonalization
     ethr =  8.32E-06,  avg # of iterations =  3.0

     negative rho (up, down):  1.217E-01 1.218E-01

     total cpu time spent up to now is      419.4 secs

     total energy              =   -3183.97195115 Ry
     estimated scf accuracy    <       0.00811878 Ry

     total magnetization       =     0.00 Bohr mag/cell
     absolute magnetization    =    27.42 Bohr mag/cell

     iteration # 19     ecut=    20.00 Ry     beta= 0.20
     CG style diagonalization
     c_bands:  1 eigenvalues not converged
     ethr =  2.76E-06,  avg # of iterations =  3.1

     negative rho (up, down):  1.217E-01 1.217E-01

     total cpu time spent up to now is      442.6 secs

     total energy              =   -3183.97567240 Ry
     estimated scf accuracy    <       0.00449787 Ry

     total magnetization       =     0.01 Bohr mag/cell
     absolute magnetization    =    27.45 Bohr mag/cell

     iteration # 20     ecut=    20.00 Ry     beta= 0.20
     CG style diagonalization
     c_bands:  2 eigenvalues not converged
     ethr =  1.53E-06,  avg # of iterations =  3.1

     negative rho (up, down):  1.216E-01 1.217E-01

     total cpu time spent up to now is      465.7 secs

     total energy              =   -3183.97806715 Ry
     estimated scf accuracy    <       0.00233934 Ry

     total magnetization       =     0.00 Bohr mag/cell
     absolute magnetization    =    27.48 Bohr mag/cell

     iteration # 21     ecut=    20.00 Ry     beta= 0.20
     CG style diagonalization
     ethr =  7.96E-07,  avg # of iterations =  3.0

     negative rho (up, down):  1.216E-01 1.216E-01

     total cpu time spent up to now is      488.1 secs

     total energy              =   -3183.98084497 Ry
     estimated scf accuracy    <       0.00118691 Ry

     total magnetization       =     0.00 Bohr mag/cell
     absolute magnetization    =    27.53 Bohr mag/cell

     iteration # 22     ecut=    20.00 Ry     beta= 0.20
     CG style diagonalization
     ethr =  4.04E-07,  avg # of iterations =  3.4

     negative rho (up, down):  1.216E-01 1.216E-01

     Magnetic moment per site:
     atom:    1    charge:   13.2010    magn:   -3.6748    constr:    0.0000
     atom:    2    charge:   13.2055    magn:   -3.5907    constr:    0.0000
     atom:    3    charge:   13.2087    magn:   -3.5716    constr:    0.0000
     atom:    4    charge:   13.2112    magn:    3.5773    constr:    0.0000
     atom:    5    charge:   13.2044    magn:    3.6723    constr:    0.0000
     atom:    6    charge:   13.1957    magn:    3.5841    constr:    0.0000
     atom:    7    charge:   10.4709    magn:   -0.0196    constr:    0.0000
     atom:    8    charge:   10.4686    magn:   -0.0160    constr:    0.0000
     atom:    9    charge:   10.4680    magn:    0.0158    constr:    0.0000
     atom:   10    charge:   10.4783    magn:   -0.0053    constr:    0.0000
     atom:   11    charge:   10.4685    magn:    0.0054    constr:    0.0000
     atom:   12    charge:   10.4686    magn:    0.0196    constr:    0.0000
     atom:   13    charge:    5.4200    magn:   -0.2285    constr:    0.0000
     atom:   14    charge:    5.4200    magn:   -0.2285    constr:    0.0000
     atom:   15    charge:    5.4200    magn:   -0.2285    constr:    0.0000
     atom:   16    charge:    5.4152    magn:   -0.2409    constr:    0.0000
     atom:   17    charge:    5.4152    magn:   -0.2409    constr:    0.0000
     atom:   18    charge:    5.4152    magn:   -0.2409    constr:    0.0000
     atom:   19    charge:    5.4182    magn:    0.2416    constr:    0.0000
     atom:   20    charge:    5.4182    magn:    0.2416    constr:    0.0000
     atom:   21    charge:    5.4182    magn:    0.2416    constr:    0.0000
     atom:   22    charge:    5.4093    magn:    0.0739    constr:    0.0000
     atom:   23    charge:    5.4093    magn:    0.0739    constr:    0.0000
     atom:   24    charge:    5.4093    magn:    0.0739    constr:    0.0000
     atom:   25    charge:    5.4091    magn:   -0.0739    constr:    0.0000
     atom:   26    charge:    5.4091    magn:   -0.0739    constr:    0.0000
     atom:   27    charge:    5.4091    magn:   -0.0739    constr:    0.0000
     atom:   28    charge:    5.4207    magn:    0.2287    constr:    0.0000
     atom:   29    charge:    5.4207    magn:    0.2287    constr:    0.0000
     atom:   30    charge:    5.4207    magn:    0.2287    constr:    0.0000

     total cpu time spent up to now is      512.9 secs

     End of self-consistent calculation

 ------ SPIN UP ------------


          k = 0.0000 0.0000 0.0000 (  3823 PWs)   bands (ev):

   -81.5503 -81.3741 -81.3619 -76.7221 -76.6604 -76.6389 -46.5127 -46.4813
   -46.4813 -46.3685 -46.3412 -46.3412 -46.2659 -46.2498 -46.2498 -41.8721
   -41.8249 -41.8248 -41.8040 -41.8040 -41.7763 -41.7450 -41.7295 -41.7295
   -11.1997 -11.1997 -11.1612 -11.1612 -11.1383 -11.1383 -11.1146 -11.0809
   -11.0783 -11.0783 -11.0746 -11.0746 -11.0639 -11.0639 -11.0421 -11.0219
   -11.0133 -11.0133 -10.9999 -10.9999 -10.9977 -10.9977 -10.9911 -10.9820
   -10.9801 -10.9801 -10.9536 -10.9536 -10.9401 -10.9401  -8.3414  -7.9783
    -7.8709  -7.1716  -7.1051  -6.7669  -6.7668  -6.6288  -6.6287  -6.6133
    -6.5367  -6.5366  -6.4291  -6.4289  -6.2603  -6.2603  -6.0838  -6.0838
     0.8386   1.0639   1.1357   1.8756   2.0128   2.7366   4.9894   4.9895
     5.1691   5.4873   5.4873   5.5793   5.6356   5.6356   5.7774   5.8495
     5.8495   5.9915   6.0520   6.0520   6.2318   6.2484   6.2485   6.4273
     6.4274   6.4508   6.5505   6.7518   6.7518   6.9792   6.9792   7.1760
     7.3379   7.6538   7.7036   7.7037   7.9426   7.9427   7.9950   7.9950
     8.0998   8.2079   8.3235   8.3236   8.5218   8.5219   8.5337   8.6629
     8.6701   8.6702   8.7863   8.7863   8.9367   8.9367   9.2556   9.2556
     9.3700   9.3847   9.3847   9.4328   9.4328   9.8444   9.8445  10.0012
    10.0013  10.1795  10.3116  10.4872  10.5443  10.5443  10.5634  10.6868
    10.7680  11.1847  11.1848  11.7702  11.7702  11.9388  11.9388  12.0593
    12.1105  12.1106  12.2257  12.2465  12.7735  12.7735  13.3656  13.3656
    13.9670  13.9670  15.0981  15.2081  15.3261  15.3708  16.3856  16.3856
    16.5188  16.5189  16.5549  16.5549  16.9046  16.9727  17.1596  17.1596
    17.2471  17.2471  17.7253  17.7253  18.2746  19.6720  19.8280  20.0031
    20.7630  20.7630  21.0323  21.1114  21.7799  21.7799  21.9025  21.9026
    22.1565  22.1565  22.9345  23.1241  23.1248  23.1366  23.4524  23.8439

     occupation numbers 
     1.0000   1.0000   1.0000   1.0000   1.0000   1.0000   1.0000   1.0000
     1.0000   1.0000   1.0000   1.0000   1.0000   1.0000   1.0000   1.0000
     1.0000   1.0000   1.0000   1.0000   1.0000   1.0000   1.0000   1.0000
     1.0000   1.0000   1.0000   1.0000   1.0000   1.0000   1.0000   1.0000
     1.0000   1.0000   1.0000   1.0000   1.0000   1.0000   1.0000   1.0000
     1.0000   1.0000   1.0000   1.0000   1.0000   1.0000   1.0000   1.0000
     1.0000   1.0000   1.0000   1.0000   1.0000   1.0000   1.0000   1.0000
     1.0000   1.0000   1.0000   1.0000   1.0000   1.0000   1.0000   1.0000
     1.0000   1.0000   1.0000   1.0000   1.0000   1.0000   1.0000   1.0000
     1.0000   1.0000   1.0000   1.0000   1.0000   1.0000   1.0000   1.0000
     1.0000   1.0000   1.0000   1.0000   1.0000   1.0000   1.0000   1.0000
     1.0000   1.0000   1.0000   1.0000   1.0000   1.0000   1.0000   1.0000
     1.0000   1.0000   1.0000   1.0000   1.0000   1.0000   1.0000   1.0000
     1.0000   1.0000   1.0000   1.0000   1.0000   1.0000   1.0000   1.0000
     1.0000   1.0000   1.0000   1.0000   1.0000   1.0000   1.0000   1.0000
     1.0000   1.0000   1.0000   1.0000   1.0000   1.0000   1.0000   1.0000
     1.0000   1.0000   1.0000   1.0000   1.0000   1.0000   1.0000   1.0000
     1.0000   1.0000   1.0000   1.0000   1.0000   1.0000   1.0000   1.0000
     1.0000   0.9991   0.9991   0.0016   0.0016   0.0000   0.0000   0.0000
     0.0000   0.0000   0.0000   0.0000   0.0000   0.0000   0.0000   0.0000
     0.0000   0.0000   0.0000   0.0000   0.0000   0.0000   0.0000   0.0000
     0.0000   0.0000   0.0000   0.0000   0.0000   0.0000   0.0000   0.0000
     0.0000   0.0000   0.0000   0.0000   0.0000   0.0000   0.0000   0.0000
     0.0000   0.0000   0.0000   0.0000   0.0000   0.0000   0.0000   0.0000
     0.0000   0.0000   0.0000   0.0000   0.0000   0.0000   0.0000   0.0000

          k = 0.0000-0.5774 0.0000 (  3794 PWs)   bands (ev):

   -81.5401 -81.3622 -81.3531 -76.7128 -76.6502 -76.6302 -46.5161 -46.4922
   -46.3848 -46.3430 -46.3394 -46.2890 -46.2506 -46.2041 -46.1410 -41.8728
   -41.8483 -41.7953 -41.7858 -41.7674 -41.7470 -41.6977 -41.6631 -41.6300
   -11.1965 -11.1607 -11.1419 -11.1368 -11.1292 -11.1251 -11.1115 -11.0960
   -11.0800 -11.0695 -11.0652 -11.0597 -11.0530 -11.0487 -11.0421 -11.0292
   -11.0238 -11.0176 -11.0130 -11.0075 -11.0029 -10.9980 -10.9975 -10.9849
   -10.9823 -10.9798 -10.9706 -10.9602 -10.9559 -10.9419  -7.7319  -7.6867
    -7.5145  -7.3608  -7.3023  -6.9828  -6.9455  -6.8835  -6.7384  -6.6541
    -6.6237  -6.6021  -6.5166  -6.4601  -6.3318  -6.2926  -6.1908  -6.1030
     0.9943   1.2163   1.2386   1.5174   1.5812   1.7762   5.1494   5.4530
     5.4647   5.6137   5.7699   5.8044   5.8603   5.9033   5.9231   6.0934
     6.1074   6.1639   6.2790   6.3387   6.5062   6.6168   6.7047   6.7473
     6.7718   6.8642   7.0260   7.0715   7.1837   7.2458   7.2856   7.4418
     7.4960   7.5383   7.6908   7.7673   7.8029   7.8646   7.8995   8.0108
     8.0551   8.1399   8.2048   8.2376   8.2969   8.3818   8.4793   8.5250
     8.5818   8.6801   8.7220   8.7924   8.9751   9.0973   9.1175   9.1796
     9.2110   9.2282   9.2987   9.3726   9.4670   9.4890   9.5611   9.6873
     9.9979  10.1409  10.1906  10.2952  10.3655  10.5404  10.6482  10.8554
    10.8920  10.9779  11.1874  11.7960  11.9373  11.9486  12.0612  12.1377
    12.1524  12.2829  12.4018  12.4846  12.8156  12.9689  13.2634  13.3536
    13.3830  13.9189  14.4674  15.0993  15.1483  15.3678  15.4430  15.4694
    15.4988  15.5658  15.6743  16.7029  16.7447  16.8288  16.8864  17.0058
    17.0680  17.1471  17.1982  17.2778  20.0894  20.2561  20.5384  21.0524
    21.1915  21.2767  21.7805  21.9339  22.0593  22.3756  22.4196  22.4492
    22.5725  22.6409  22.9867  23.0420  23.2572  23.3264  23.3859  23.4348

     occupation numbers 
     1.0000   1.0000   1.0000   1.0000   1.0000   1.0000   1.0000   1.0000
     1.0000   1.0000   1.0000   1.0000   1.0000   1.0000   1.0000   1.0000
     1.0000   1.0000   1.0000   1.0000   1.0000   1.0000   1.0000   1.0000
     1.0000   1.0000   1.0000   1.0000   1.0000   1.0000   1.0000   1.0000
     1.0000   1.0000   1.0000   1.0000   1.0000   1.0000   1.0000   1.0000
     1.0000   1.0000   1.0000   1.0000   1.0000   1.0000   1.0000   1.0000
     1.0000   1.0000   1.0000   1.0000   1.0000   1.0000   1.0000   1.0000
     1.0000   1.0000   1.0000   1.0000   1.0000   1.0000   1.0000   1.0000
     1.0000   1.0000   1.0000   1.0000   1.0000   1.0000   1.0000   1.0000
     1.0000   1.0000   1.0000   1.0000   1.0000   1.0000   1.0000   1.0000
     1.0000   1.0000   1.0000   1.0000   1.0000   1.0000   1.0000   1.0000
     1.0000   1.0000   1.0000   1.0000   1.0000   1.0000   1.0000   1.0000
     1.0000   1.0000   1.0000   1.0000   1.0000   1.0000   1.0000   1.0000
     1.0000   1.0000   1.0000   1.0000   1.0000   1.0000   1.0000   1.0000
     1.0000   1.0000   1.0000   1.0000   1.0000   1.0000   1.0000   1.0000
     1.0000   1.0000   1.0000   1.0000   1.0000   1.0000   1.0000   1.0000
     1.0000   1.0000   1.0000   1.0000   1.0000   1.0000   1.0000   1.0000
     1.0000   1.0000   1.0000   1.0000   1.0000   1.0000   1.0000   1.0000
     1.0000   1.0000   0.9990   0.0006   0.0000   0.0000   0.0000   0.0000
     0.0000   0.0000   0.0000   0.0000   0.0000   0.0000   0.0000   0.0000
     0.0000   0.0000   0.0000   0.0000   0.0000   0.0000   0.0000   0.0000
     0.0000   0.0000   0.0000   0.0000   0.0000   0.0000   0.0000   0.0000
     0.0000   0.0000   0.0000   0.0000   0.0000   0.0000   0.0000   0.0000
     0.0000   0.0000   0.0000   0.0000   0.0000   0.0000   0.0000   0.0000
     0.0000   0.0000   0.0000   0.0000   0.0000   0.0000   0.0000   0.0000

 ------ SPIN DOWN ----------


          k = 0.0000 0.0000 0.0000 (  3823 PWs)   bands (ev):

   -81.5380 -81.3717 -81.3613 -76.7290 -76.6562 -76.6469 -46.5066 -46.4636
   -46.4636 -46.3656 -46.3470 -46.3470 -46.2543 -46.2534 -46.2534 -41.8698
   -41.8420 -41.8420 -41.7958 -41.7958 -41.7812 -41.7610 -41.7233 -41.7233
   -11.2003 -11.2003 -11.1616 -11.1616 -11.1376 -11.1376 -11.1038 -11.0939
   -11.0796 -11.0796 -11.0733 -11.0733 -11.0630 -11.0630 -11.0412 -11.0277
   -11.0141 -11.0141 -11.0006 -11.0006 -10.9979 -10.9979 -10.9921 -10.9794
   -10.9794 -10.9710 -10.9555 -10.9555 -10.9387 -10.9387  -8.3418  -7.9786
    -7.8706  -7.1710  -7.1059  -6.7661  -6.7660  -6.6296  -6.6295  -6.6133
    -6.5362  -6.5361  -6.4304  -6.4303  -6.2602  -6.2602  -6.0833  -6.0832
     0.8378   1.0641   1.1352   1.8760   2.0120   2.7365   4.9904   4.9905
     5.1696   5.4881   5.4882   5.5797   5.6369   5.6369   5.7761   5.8522
     5.8522   5.9911   6.0535   6.0536   6.2301   6.2492   6.2493   6.4289
     6.4290   6.4488   6.5501   6.7503   6.7503   6.9824   6.9824   7.1703
     7.3405   7.6481   7.7037   7.7038   7.9447   7.9447   7.9967   7.9968
     8.0921   8.2073   8.3254   8.3255   8.5227   8.5227   8.5328   8.6604
     8.6706   8.6707   8.7899   8.7900   8.9360   8.9361   9.2561   9.2562
     9.3688   9.3847   9.3847   9.4334   9.4335   9.8448   9.8449  10.0040
    10.0040  10.1821  10.3129  10.4897  10.5450  10.5450  10.5586  10.6832
    10.7656  11.1856  11.1856  11.7790  11.7790  11.9336  11.9336  12.0643
    12.1101  12.1101  12.2109  12.2679  12.7656  12.7656  13.3626  13.3627
    13.9638  13.9638  15.0983  15.2115  15.3236  15.3676  16.3847  16.3847
    16.5194  16.5194  16.5543  16.5544  16.9040  16.9727  17.1595  17.1595
    17.2465  17.2466  17.7252  17.7252  18.2749  19.6723  19.8257  19.9985
    20.7636  20.7636  21.0255  21.1093  21.7795  21.7795  21.9029  21.9029
    22.1563  22.1564  22.9360  23.1239  23.1244  23.1391  23.2742  23.2758

     occupation numbers 
     1.0000   1.0000   1.0000   1.0000   1.0000   1.0000   1.0000   1.0000
     1.0000   1.0000   1.0000   1.0000   1.0000   1.0000   1.0000   1.0000
     1.0000   1.0000   1.0000   1.0000   1.0000   1.0000   1.0000   1.0000
     1.0000   1.0000   1.0000   1.0000   1.0000   1.0000   1.0000   1.0000
     1.0000   1.0000   1.0000   1.0000   1.0000   1.0000   1.0000   1.0000
     1.0000   1.0000   1.0000   1.0000   1.0000   1.0000   1.0000   1.0000
     1.0000   1.0000   1.0000   1.0000   1.0000   1.0000   1.0000   1.0000
     1.0000   1.0000   1.0000   1.0000   1.0000   1.0000   1.0000   1.0000
     1.0000   1.0000   1.0000   1.0000   1.0000   1.0000   1.0000   1.0000
     1.0000   1.0000   1.0000   1.0000   1.0000   1.0000   1.0000   1.0000
     1.0000   1.0000   1.0000   1.0000   1.0000   1.0000   1.0000   1.0000
     1.0000   1.0000   1.0000   1.0000   1.0000   1.0000   1.0000   1.0000
     1.0000   1.0000   1.0000   1.0000   1.0000   1.0000   1.0000   1.0000
     1.0000   1.0000   1.0000   1.0000   1.0000   1.0000   1.0000   1.0000
     1.0000   1.0000   1.0000   1.0000   1.0000   1.0000   1.0000   1.0000
     1.0000   1.0000   1.0000   1.0000   1.0000   1.0000   1.0000   1.0000
     1.0000   1.0000   1.0000   1.0000   1.0000   1.0000   1.0000   1.0000
     1.0000   1.0000   1.0000   1.0000   1.0000   1.0000   1.0000   1.0000
     1.0000   0.9991   0.9991   0.0012   0.0012   0.0000   0.0000   0.0000
     0.0000   0.0000   0.0000   0.0000   0.0000   0.0000   0.0000   0.0000
     0.0000   0.0000   0.0000   0.0000   0.0000   0.0000   0.0000   0.0000
     0.0000   0.0000   0.0000   0.0000   0.0000   0.0000   0.0000   0.0000
     0.0000   0.0000   0.0000   0.0000   0.0000   0.0000   0.0000   0.0000
     0.0000   0.0000   0.0000   0.0000   0.0000   0.0000   0.0000   0.0000
     0.0000   0.0000   0.0000   0.0000   0.0000   0.0000   0.0000   0.0000

          k = 0.0000-0.5774 0.0000 (  3794 PWs)   bands (ev):

   -81.5277 -81.3593 -81.3530 -76.7198 -76.6445 -76.6396 -46.4997 -46.4862
   -46.3746 -46.3486 -46.3299 -46.2916 -46.2387 -46.2101 -46.1439 -41.8854
   -41.8427 -41.7959 -41.7859 -41.7668 -41.7603 -41.7141 -41.6551 -41.6253
   -11.1971 -11.1611 -11.1423 -11.1368 -11.1296 -11.1197 -11.1116 -11.0977
   -11.0783 -11.0759 -11.0659 -11.0602 -11.0515 -11.0472 -11.0403 -11.0335
   -11.0234 -11.0184 -11.0122 -11.0071 -11.0041 -11.0025 -10.9966 -10.9898
   -10.9839 -10.9713 -10.9645 -10.9597 -10.9576 -10.9406  -7.7320  -7.6872
    -7.5146  -7.3611  -7.3019  -6.9823  -6.9455  -6.8833  -6.7389  -6.6537
    -6.6240  -6.6012  -6.5182  -6.4609  -6.3318  -6.2927  -6.1903  -6.1026
     0.9935   1.2159   1.2387   1.5180   1.5800   1.7767   5.1505   5.4524
     5.4670   5.6147   5.7706   5.8043   5.8597   5.9027   5.9229   6.0930
     6.1091   6.1639   6.2828   6.3399   6.5078   6.6207   6.7063   6.7505
     6.7712   6.8639   7.0264   7.0709   7.1876   7.2432   7.2885   7.4417
     7.4943   7.5400   7.6914   7.7668   7.8055   7.8651   7.8986   8.0096
     8.0535   8.1393   8.2082   8.2396   8.2962   8.3772   8.4791   8.5246
     8.5818   8.6787   8.7221   8.7931   8.9735   9.0972   9.1181   9.1796
     9.2118   9.2278   9.2978   9.3712   9.4678   9.4889   9.5598   9.6904
     9.9988  10.1424  10.1900  10.2944  10.3672  10.5413  10.6505  10.8583
    10.8928  10.9783  11.1869  11.7946  11.9242  11.9611  12.0537  12.1370
    12.1530  12.3038  12.3958  12.4931  12.8082  12.9659  13.2587  13.3499
    13.3763  13.9173  14.4665  15.0987  15.1479  15.3676  15.4428  15.4679
    15.4994  15.5665  15.6728  16.7025  16.7444  16.8297  16.8854  17.0061
    17.0683  17.1445  17.1988  17.2771  20.0925  20.2563  20.5389  21.0516
    21.1843  21.2685  21.7780  21.9352  22.0580  22.3766  22.4183  22.4481
    22.5707  22.6413  22.9841  23.0436  23.2563  23.3255  23.3819  23.4342

     occupation numbers 
     1.0000   1.0000   1.0000   1.0000   1.0000   1.0000   1.0000   1.0000
     1.0000   1.0000   1.0000   1.0000   1.0000   1.0000   1.0000   1.0000
     1.0000   1.0000   1.0000   1.0000   1.0000   1.0000   1.0000   1.0000
     1.0000   1.0000   1.0000   1.0000   1.0000   1.0000   1.0000   1.0000
     1.0000   1.0000   1.0000   1.0000   1.0000   1.0000   1.0000   1.0000
     1.0000   1.0000   1.0000   1.0000   1.0000   1.0000   1.0000   1.0000
     1.0000   1.0000   1.0000   1.0000   1.0000   1.0000   1.0000   1.0000
     1.0000   1.0000   1.0000   1.0000   1.0000   1.0000   1.0000   1.0000
     1.0000   1.0000   1.0000   1.0000   1.0000   1.0000   1.0000   1.0000
     1.0000   1.0000   1.0000   1.0000   1.0000   1.0000   1.0000   1.0000
     1.0000   1.0000   1.0000   1.0000   1.0000   1.0000   1.0000   1.0000
     1.0000   1.0000   1.0000   1.0000   1.0000   1.0000   1.0000   1.0000
     1.0000   1.0000   1.0000   1.0000   1.0000   1.0000   1.0000   1.0000
     1.0000   1.0000   1.0000   1.0000   1.0000   1.0000   1.0000   1.0000
     1.0000   1.0000   1.0000   1.0000   1.0000   1.0000   1.0000   1.0000
     1.0000   1.0000   1.0000   1.0000   1.0000   1.0000   1.0000   1.0000
     1.0000   1.0000   1.0000   1.0000   1.0000   1.0000   1.0000   1.0000
     1.0000   1.0000   1.0000   1.0000   1.0000   1.0000   1.0000   1.0000
     1.0000   1.0000   0.9991   0.0007   0.0000   0.0000   0.0000   0.0000
     0.0000   0.0000   0.0000   0.0000   0.0000   0.0000   0.0000   0.0000
     0.0000   0.0000   0.0000   0.0000   0.0000   0.0000   0.0000   0.0000
     0.0000   0.0000   0.0000   0.0000   0.0000   0.0000   0.0000   0.0000
     0.0000   0.0000   0.0000   0.0000   0.0000   0.0000   0.0000   0.0000
     0.0000   0.0000   0.0000   0.0000   0.0000   0.0000   0.0000   0.0000
     0.0000   0.0000   0.0000   0.0000   0.0000   0.0000   0.0000   0.0000

     the Fermi energy is    11.4857 ev

!    total energy              =   -3183.98278403 Ry
     estimated scf accuracy    <       0.00038491 Ry
     smearing contrib. (-TS)   =      -0.00011120 Ry
     internal energy E=F+TS    =   -3183.98267283 Ry

     The total energy is F=E-TS. E is the sum of the following terms:
     one-electron contribution =   -1289.69553870 Ry
     hartree contribution      =     825.29880041 Ry
     xc contribution           =    -691.93680508 Ry
     ewald contribution        =   -2027.64912945 Ry

     total magnetization       =     0.00 Bohr mag/cell
     absolute magnetization    =    27.59 Bohr mag/cell

     convergence has been achieved in  22 iterations

     Writing output data file /home/aldair1809/Documentos/QE/4BFO/UHUBBARD/temp/pseudo_o_pbe_v1.2.uspp.F.UPF_ecutwfc_20.in/bifeo3-scf.save/

     init_run     :      6.24s CPU      6.38s WALL (       1 calls)
     electrons    :    497.08s CPU    506.15s WALL (       1 calls)

     Called by init_run:
     wfcinit      :      5.46s CPU      5.53s WALL (       1 calls)
     wfcinit:atom :      0.01s CPU      0.01s WALL (       4 calls)
     wfcinit:wfcr :      5.38s CPU      5.43s WALL (       4 calls)
     potinit      :      0.13s CPU      0.14s WALL (       1 calls)
     hinit0       :      0.38s CPU      0.39s WALL (       1 calls)

     Called by electrons:
     c_bands      :    453.79s CPU    462.18s WALL (      22 calls)
     sum_band     :     36.79s CPU     37.42s WALL (      22 calls)
     v_of_rho     :      0.74s CPU      0.78s WALL (      23 calls)
     v_h          :      0.01s CPU      0.02s WALL (      23 calls)
     v_xc         :      0.73s CPU      0.76s WALL (      23 calls)
     newd         :      5.80s CPU      5.87s WALL (      23 calls)
     mix_rho      :      0.17s CPU      0.17s WALL (      22 calls)

     Called by c_bands:
     init_us_2    :      0.74s CPU      0.75s WALL (     180 calls)
     ccgdiagg     :    341.65s CPU    348.91s WALL (      88 calls)
     wfcrot       :    116.82s CPU    118.00s WALL (      88 calls)

     Called by sum_band:
     sum_band:wei :      0.02s CPU      0.02s WALL (      22 calls)
     sum_band:loo :     29.60s CPU     30.20s WALL (      22 calls)
     sum_band:buf :      0.14s CPU      0.14s WALL (      88 calls)
     sum_band:ini :      0.36s CPU      0.36s WALL (      88 calls)
     sum_band:cal :     24.40s CPU     24.50s WALL (      88 calls)
     sum_band:bec :      0.46s CPU      0.46s WALL (      88 calls)
     addusdens    :      7.07s CPU      7.10s WALL (      22 calls)
     addusd:skk   :      0.03s CPU      0.03s WALL (      88 calls)
     addusd:dgemm :      3.32s CPU      3.34s WALL (     176 calls)
     addusd:qvan2 :      3.63s CPU      3.63s WALL (     176 calls)

     Called by *cgdiagg:
     h_psi        :    192.45s CPU    198.34s WALL (   37264 calls)
     s_psi        :    131.88s CPU    132.89s WALL (   74440 calls)

     Called by h_psi:
     h_psi:calbec :     81.74s CPU     84.93s WALL (   37264 calls)
     vloc_psi     :     30.73s CPU     33.11s WALL (   37264 calls)
     add_vuspsi   :     79.15s CPU     79.55s WALL (   37264 calls)
     hs_1psi      :    188.66s CPU    193.96s WALL (   37176 calls)
     s_1psi       :    108.34s CPU    109.91s WALL (   37176 calls)

     General routines
     calbec       :    160.25s CPU    164.91s WALL (   74528 calls)
     fft          :      0.21s CPU      0.23s WALL (     481 calls)
     ffts         :      0.02s CPU      0.02s WALL (      44 calls)
     fftw         :     29.55s CPU     32.04s WALL (  127184 calls)

     Parallel routines
     fft_scatt_xy :      4.83s CPU      5.22s WALL (  127709 calls)
     fft_scatt_yz :      8.57s CPU      9.40s WALL (  127709 calls)

     PWSCF        :   8m23.77s CPU   8m33.08s WALL


   This run was terminated on:  21:29:35  28Sep2024            

=------------------------------------------------------------------------------=
   JOB DONE.
=------------------------------------------------------------------------------=
