
     Program PWSCF v.6.7MaX starts on 28Sep2024 at 21:42:39 

     This program is part of the open-source Quantum ESPRESSO suite
     for quantum simulation of materials; please cite
         "P. Giannozzi et al., J. Phys.:Condens. Matter 21 395502 (2009);
         "P. Giannozzi et al., J. Phys.:Condens. Matter 29 465901 (2017);
          URL http://www.quantum-espresso.org", 
     in publications or presentations arising from this work. More details at
     http://www.quantum-espresso.org/quote

     Parallel version (MPI), running on     4 processors

     MPI processes distributed on     1 nodes
     R & G space division:  proc/nbgrp/npool/nimage =       4
     Waiting for input...
     Reading input from standard input

     Current dimensions of program PWSCF are:
     Max number of different atomic species (ntypx) = 10
     Max number of k-points (npk) =  40000
     Max angular momentum in pseudopotentials (lmaxx) =  3
     Message from routine iosys:
     wrong startingpot: use default (1)

     Subspace diagonalization in iterative solution of the eigenvalue problem:
     one sub-group per band group will be used
     scalapack distributed-memory algorithm (size of sub-group:  2*  2 procs)

     Message from routine setup:
     using ibrav=0 with symmetry is DISCOURAGED, use correct ibrav instead

     Parallelization info
     --------------------
     sticks:   dense  smooth     PW     G-vecs:    dense   smooth      PW
     Min         139     139     40                 6561     6561    1030
     Max         140     140     41                 6568     6568    1037
     Sum         559     559    163                26261    26261    4137



     bravais-lattice index     =            0
     lattice parameter (alat)  =      10.5468  a.u.
     unit-cell volume          =    2535.5110 (a.u.)^3
     number of atoms/cell      =           30
     number of atomic types    =            4
     number of electrons       =       294.00
     number of Kohn-Sham states=          200
     kinetic-energy cutoff     =      18.0000  Ry
     charge density cutoff     =      72.0000  Ry
     scf convergence threshold =      1.0E-03
     mixing beta               =       0.2000
     number of iterations used =            8  plain     mixing
     Exchange-correlation= SLA  PW   PSX  PSC
                           (   1   4  10   8   0   0   0)

     celldm(1)=  10.546849  celldm(2)=   0.000000  celldm(3)=   0.000000
     celldm(4)=   0.000000  celldm(5)=   0.000000  celldm(6)=   0.000000

     crystal axes: (cart. coord. in units of alat)
               a(1) = (   1.000000  -0.000000  -0.000000 )  
               a(2) = (  -0.500000   0.866025  -0.000000 )  
               a(3) = (   0.000000  -0.000000   2.495552 )  

     reciprocal axes: (cart. coord. in units 2 pi/alat)
               b(1) = (  1.000000  0.577350  0.000000 )  
               b(2) = (  0.000000  1.154701  0.000000 )  
               b(3) = (  0.000000  0.000000  0.400713 )  


     PseudoPot. # 1 for O  read from file:
     /home/aldair1809/Programas/QE/q-e-qe-7.3/pseudo/o_pbesol_v1.2.uspp.F.UPF
     MD5 check sum: 501638753501ef6325af9037351f7734
     Pseudo is Ultrasoft + core correction, Zval =  6.0
     Generated by new atomic code, or converted to UPF format
     Using radial grid of  737 points,  5 beta functions with: 
                l(1) =   0
                l(2) =   0
                l(3) =   1
                l(4) =   1
                l(5) =   2
     Q(r) pseudized with  8 coefficients,  rinner =    0.900   0.900   0.900
                                                       0.900   0.900

     PseudoPot. # 2 for Bi read from file:
     /home/aldair1809/Programas/QE/q-e-qe-7.3/pseudo/bi_pbesol_v1.uspp.F.UPF
     MD5 check sum: 588b87649a5c12ad5a0392deab1dcc00
     Pseudo is Ultrasoft + core correction, Zval = 15.0
     Generated by new atomic code, or converted to UPF format
     Using radial grid of  899 points,  6 beta functions with: 
                l(1) =   0
                l(2) =   0
                l(3) =   1
                l(4) =   1
                l(5) =   2
                l(6) =   2
     Q(r) pseudized with  6 coefficients,  rinner =    1.000   1.000   1.000
                                                       1.000   1.000

     PseudoPot. # 3 for Fe read from file:
     /home/aldair1809/Programas/QE/q-e-qe-7.3/pseudo/fe_pbesol_v1.5.uspp.F.UPF
     MD5 check sum: a3f38e9a1a818e424be8f97771a26c64
     Pseudo is Ultrasoft + core correction, Zval = 16.0
     Generated by new atomic code, or converted to UPF format
     Using radial grid of  861 points,  6 beta functions with: 
                l(1) =   0
                l(2) =   0
                l(3) =   1
                l(4) =   1
                l(5) =   2
                l(6) =   2
     Q(r) pseudized with  8 coefficients,  rinner =    1.000   1.000   1.000
                                                       1.000   1.000

     PseudoPot. # 4 for Fe read from file:
     /home/aldair1809/Programas/QE/q-e-qe-7.3/pseudo/fe_pbesol_v1.5.uspp.F.UPF
     MD5 check sum: a3f38e9a1a818e424be8f97771a26c64
     Pseudo is Ultrasoft + core correction, Zval = 16.0
     Generated by new atomic code, or converted to UPF format
     Using radial grid of  861 points,  6 beta functions with: 
                l(1) =   0
                l(2) =   0
                l(3) =   1
                l(4) =   1
                l(5) =   2
                l(6) =   2
     Q(r) pseudized with  8 coefficients,  rinner =    1.000   1.000   1.000
                                                       1.000   1.000

     atomic species   valence    mass     pseudopotential
        O              6.00    15.99940     O ( 1.00)
        Bi            15.00   208.98040     Bi( 1.00)
        Fe1           16.00    55.84500     Fe( 1.00)
        Fe2           16.00    55.84500     Fe( 1.00)

     Starting magnetic structure 
     atomic species   magnetization
        O            0.000
        Bi           0.000
        Fe1         -0.800
        Fe2          0.800

      3 Sym. Ops. (no inversion) found


                                    s                        frac. trans.

      isym =  1     identity                                     

 cryst.   s( 1) = (     1          0          0      )
                  (     0          1          0      )
                  (     0          0          1      )

 cart.    s( 1) = (  1.0000000 -0.0000000  0.0000000 )
                  (  0.0000000  1.0000000  0.0000000 )
                  (  0.0000000  0.0000000  1.0000000 )


      isym =  2     120 deg rotation - cryst. axis [0,0,1]       

 cryst.   s( 2) = (     0          1          0      )
                  (    -1         -1          0      )
                  (     0          0          1      )

 cart.    s( 2) = ( -0.5000000 -0.8660254  0.0000000 )
                  (  0.8660254 -0.5000000  0.0000000 )
                  (  0.0000000  0.0000000  1.0000000 )


      isym =  3     120 deg rotation - cryst. axis [0,0,-1]      

 cryst.   s( 3) = (    -1         -1          0      )
                  (     1          0          0      )
                  (     0          0          1      )

 cart.    s( 3) = ( -0.5000000  0.8660254  0.0000000 )
                  ( -0.8660254 -0.5000000  0.0000000 )
                  (  0.0000000  0.0000000  1.0000000 )


   Cartesian axes

     site n.     atom                  positions (alat units)
         1           Fe1 tau(   1) = (   0.0000000   0.0000000   1.9384582  )
         2           Fe1 tau(   2) = (  -0.0000005   0.5773506   2.3615556  )
         3           Fe1 tau(   3) = (   0.5000005   0.2886748   1.5200787  )
         4           Fe2 tau(   4) = (   0.5000005   0.2886748   0.2722626  )
         5           Fe2 tau(   5) = (   0.0000000   0.0000000   0.6907071  )
         6           Fe2 tau(   6) = (  -0.0000005   0.5773506   1.1137452  )
         7           Bi  tau(   7) = (   0.5000005   0.2886748   2.0843143  )
         8           Bi  tau(   8) = (  -0.0000005   0.5773506   1.6713980  )
         9           Bi  tau(   9) = (  -0.0000005   0.5773506   0.4235448  )
        10           Bi  tau(  10) = (   0.0000000   0.0000000   0.0002821  )
        11           Bi  tau(  11) = (   0.0000000   0.0000000   1.2481025  )
        12           Bi  tau(  12) = (   0.5000005   0.2886748   0.8364865  )
        13           O   tau(  13) = (  -0.3105904   0.6551932   2.2011299  )
        14           O   tau(  14) = (   0.0878817   0.2694488   2.2011299  )
        15           O   tau(  15) = (   0.2227102   0.8074080   2.2011299  )
        16           O   tau(  16) = (   0.4087504   0.5589755   1.7846473  )
        17           O   tau(  17) = (   0.3115373   0.0745013   1.7846473  )
        18           O   tau(  18) = (   0.7797108   0.2325494   1.7846473  )
        19           O   tau(  19) = (   0.6884743   0.0745026   0.5368244  )
        20           O   tau(  20) = (   0.5912412   0.5589858   0.5368244  )
        21           O   tau(  21) = (   0.2202830   0.2325379   0.5368244  )
        22           O   tau(  22) = (  -0.0823010   0.8482993   0.1166193  )
        23           O   tau(  23) = (  -0.1934983   0.3706010   0.1166193  )
        24           O   tau(  24) = (   0.2757993   0.5131505   0.1166193  )
        25           O   tau(  25) = (   0.1934855   0.3705936   1.3644430  )
        26           O   tau(  26) = (   0.0823138   0.8482919   1.3644430  )
        27           O   tau(  27) = (  -0.2757993   0.5131653   1.3644430  )
        28           O   tau(  28) = (  -0.0878870   0.2694458   0.9533686  )
        29           O   tau(  29) = (   0.3105971   0.6551893   0.9533686  )
        30           O   tau(  30) = (  -0.2227086   0.8074149   0.9533686  )

   Crystallographic axes

     site n.     atom                  positions (cryst. coord.)
         1           Fe1 tau(   1) = (  0.0000000  0.0000000  0.7767652  )
         2           Fe1 tau(   2) = (  0.3333330  0.6666670  0.9463058  )
         3           Fe1 tau(   3) = (  0.6666670  0.3333330  0.6091152  )
         4           Fe2 tau(   4) = (  0.6666670  0.3333330  0.1090991  )
         5           Fe2 tau(   5) = (  0.0000000  0.0000000  0.2767753  )
         6           Fe2 tau(   6) = (  0.3333330  0.6666670  0.4462921  )
         7           Bi  tau(   7) = (  0.6666670  0.3333330  0.8352117  )
         8           Bi  tau(   8) = (  0.3333330  0.6666670  0.6697508  )
         9           Bi  tau(   9) = (  0.3333330  0.6666670  0.1697199  )
        10           Bi  tau(  10) = (  0.0000000  0.0000000  0.0001130  )
        11           Bi  tau(  11) = (  0.0000000  0.0000000  0.5001308  )
        12           Bi  tau(  12) = (  0.6666670  0.3333330  0.3351910  )
        13           O   tau(  13) = (  0.0676856  0.7565520  0.8820212  )
        14           O   tau(  14) = (  0.2434480  0.3111326  0.8820212  )
        15           O   tau(  15) = (  0.6888674  0.9323144  0.8820212  )
        16           O   tau(  16) = (  0.7314750  0.6454493  0.7151312  )
        17           O   tau(  17) = (  0.3545507  0.0860267  0.7151312  )
        18           O   tau(  18) = (  0.9139733  0.2685250  0.7151312  )
        19           O   tau(  19) = (  0.7314884  0.0860282  0.2151125  )
        20           O   tau(  20) = (  0.9139718  0.6454612  0.2151125  )
        21           O   tau(  21) = (  0.3545388  0.2685116  0.2151125  )
        22           O   tau(  22) = (  0.4074649  0.9795317  0.0467309  )
        23           O   tau(  23) = (  0.0204683  0.4279331  0.0467309  )
        24           O   tau(  24) = (  0.5720669  0.5925351  0.0467309  )
        25           O   tau(  25) = (  0.4074478  0.4279246  0.5467499  )
        26           O   tau(  26) = (  0.5720754  0.9795232  0.5467499  )
        27           O   tau(  27) = (  0.0204768  0.5925522  0.5467499  )
        28           O   tau(  28) = (  0.0676775  0.3111292  0.3820271  )
        29           O   tau(  29) = (  0.6888708  0.7565474  0.3820271  )
        30           O   tau(  30) = (  0.2434526  0.9323225  0.3820271  )

     number of k points=     2  Gaussian smearing, width (Ry)=  0.0100
                       cart. coord. in units 2pi/alat
        k(    1) = (   0.0000000   0.0000000   0.0000000), wk =   0.2500000
        k(    2) = (   0.0000000  -0.5773503   0.0000000), wk =   0.7500000

                       cryst. coord.
        k(    1) = (   0.0000000   0.0000000   0.0000000), wk =   0.2500000
        k(    2) = (   0.0000000  -0.5000000   0.0000000), wk =   0.7500000

     Dense  grid:    26261 G-vectors     FFT dimensions: (  30,  30,  72)

     Dynamical RAM for                 wfc:       2.49 MB

     Dynamical RAM for     wfc (w. buffer):      12.47 MB

     Dynamical RAM for           str. fact:       0.40 MB

     Dynamical RAM for           local pot:       0.00 MB

     Dynamical RAM for          nlocal pot:       5.61 MB

     Dynamical RAM for                qrad:       2.73 MB

     Dynamical RAM for          rho,v,vnew:       1.34 MB

     Dynamical RAM for               rhoin:       0.45 MB

     Dynamical RAM for            rho*nmix:       3.21 MB

     Dynamical RAM for           G-vectors:       0.43 MB

     Dynamical RAM for          h,s,v(r/c):       0.46 MB

     Dynamical RAM for          <psi|beta>:       1.37 MB

     Dynamical RAM for      wfcinit/wfcrot:       6.04 MB

     Dynamical RAM for           addusdens:      20.54 MB

     Estimated static dynamical RAM per process >      27.87 MB

     Estimated max dynamical RAM per process >      48.41 MB

     Estimated total dynamical RAM >     193.64 MB

     Check: negative core charge=   -0.001771
     Generating pointlists ...
     new r_m :   0.1458 (alat units)  1.5374 (a.u.) for type    1
     new r_m :   0.1687 (alat units)  1.7788 (a.u.) for type    2
     new r_m :   0.1458 (alat units)  1.5374 (a.u.) for type    3
     new r_m :   0.1458 (alat units)  1.5374 (a.u.) for type    4

     Initial potential from superposition of free atoms

     starting charge  281.99971, renormalised to  294.00000

     negative rho (up, down):  1.244E-01 1.244E-01
     Starting wfcs are  204 randomized atomic wfcs

     total cpu time spent up to now is        6.0 secs

     Self-consistent Calculation

     iteration #  1     ecut=    18.00 Ry     beta= 0.20
     CG style diagonalization
     ethr =  1.00E-02,  avg # of iterations =  2.8

     negative rho (up, down):  1.100E-01 1.099E-01

     total cpu time spent up to now is       26.7 secs

     total energy              =   -3166.74512606 Ry
     estimated scf accuracy    <      30.22987694 Ry

     total magnetization       =    -0.00 Bohr mag/cell
     absolute magnetization    =    30.58 Bohr mag/cell

     iteration #  2     ecut=    18.00 Ry     beta= 0.20
     CG style diagonalization
     ethr =  1.00E-02,  avg # of iterations =  3.0

     negative rho (up, down):  9.436E-02 9.435E-02

     total cpu time spent up to now is       46.2 secs

     total energy              =   -3167.85288164 Ry
     estimated scf accuracy    <      14.15358391 Ry

     total magnetization       =    -0.00 Bohr mag/cell
     absolute magnetization    =    30.35 Bohr mag/cell

     iteration #  3     ecut=    18.00 Ry     beta= 0.20
     CG style diagonalization
     ethr =  4.81E-03,  avg # of iterations =  3.5

     negative rho (up, down):  9.264E-02 9.263E-02

     total cpu time spent up to now is       69.2 secs

     total energy              =   -3178.85351706 Ry
     estimated scf accuracy    <      31.74257928 Ry

     total magnetization       =    -0.18 Bohr mag/cell
     absolute magnetization    =    16.44 Bohr mag/cell

     iteration #  4     ecut=    18.00 Ry     beta= 0.20
     CG style diagonalization
     ethr =  4.81E-03,  avg # of iterations =  3.0

     negative rho (up, down):  9.287E-02 9.286E-02

     total cpu time spent up to now is       88.9 secs

     total energy              =   -3175.90866285 Ry
     estimated scf accuracy    <     108.23855083 Ry

     total magnetization       =     0.06 Bohr mag/cell
     absolute magnetization    =     4.48 Bohr mag/cell

     iteration #  5     ecut=    18.00 Ry     beta= 0.20
     CG style diagonalization
     ethr =  4.81E-03,  avg # of iterations =  3.0

     negative rho (up, down):  9.320E-02 9.322E-02

     total cpu time spent up to now is      108.3 secs

     total energy              =   -3172.90491542 Ry
     estimated scf accuracy    <      72.76916865 Ry

     total magnetization       =     0.16 Bohr mag/cell
     absolute magnetization    =     7.40 Bohr mag/cell

     iteration #  6     ecut=    18.00 Ry     beta= 0.20
     CG style diagonalization
     ethr =  4.81E-03,  avg # of iterations =  3.0

     negative rho (up, down):  9.379E-02 9.382E-02

     total cpu time spent up to now is      127.8 secs

     total energy              =   -3170.35565474 Ry
     estimated scf accuracy    <      51.54903448 Ry

     total magnetization       =     1.56 Bohr mag/cell
     absolute magnetization    =    12.43 Bohr mag/cell

     iteration #  7     ecut=    18.00 Ry     beta= 0.20
     CG style diagonalization
     ethr =  4.81E-03,  avg # of iterations =  3.0

     negative rho (up, down):  9.380E-02 9.382E-02

     total cpu time spent up to now is      147.7 secs

     total energy              =   -3171.62730956 Ry
     estimated scf accuracy    <       8.58001300 Ry

     total magnetization       =     0.27 Bohr mag/cell
     absolute magnetization    =    22.18 Bohr mag/cell

     iteration #  8     ecut=    18.00 Ry     beta= 0.20
     CG style diagonalization
     ethr =  2.92E-03,  avg # of iterations =  3.0

     negative rho (up, down):  9.389E-02 9.390E-02

     total cpu time spent up to now is      167.3 secs

     total energy              =   -3171.62632129 Ry
     estimated scf accuracy    <       6.54187703 Ry

     total magnetization       =     0.37 Bohr mag/cell
     absolute magnetization    =    22.79 Bohr mag/cell

     iteration #  9     ecut=    18.00 Ry     beta= 0.20
     CG style diagonalization
     ethr =  2.23E-03,  avg # of iterations =  3.0

     negative rho (up, down):  9.402E-02 9.404E-02

     total cpu time spent up to now is      187.0 secs

     total energy              =   -3171.73659354 Ry
     estimated scf accuracy    <       7.90731498 Ry

     total magnetization       =     0.10 Bohr mag/cell
     absolute magnetization    =    21.21 Bohr mag/cell

     iteration # 10     ecut=    18.00 Ry     beta= 0.20
     CG style diagonalization
     ethr =  2.23E-03,  avg # of iterations =  3.0

     negative rho (up, down):  9.435E-02 9.438E-02

     total cpu time spent up to now is      206.9 secs

     total energy              =   -3171.30280738 Ry
     estimated scf accuracy    <       9.76460828 Ry

     total magnetization       =    -0.53 Bohr mag/cell
     absolute magnetization    =    19.95 Bohr mag/cell

     iteration # 11     ecut=    18.00 Ry     beta= 0.20
     CG style diagonalization
     ethr =  2.23E-03,  avg # of iterations =  3.0

     negative rho (up, down):  9.528E-02 9.532E-02

     total cpu time spent up to now is      226.4 secs

     total energy              =   -3171.31896398 Ry
     estimated scf accuracy    <       1.64367386 Ry

     total magnetization       =     0.63 Bohr mag/cell
     absolute magnetization    =    25.43 Bohr mag/cell

     iteration # 12     ecut=    18.00 Ry     beta= 0.20
     CG style diagonalization
     ethr =  5.59E-04,  avg # of iterations =  3.1

     negative rho (up, down):  9.544E-02 9.548E-02

     total cpu time spent up to now is      246.3 secs

     total energy              =   -3171.56449663 Ry
     estimated scf accuracy    <       0.63277264 Ry

     total magnetization       =     0.01 Bohr mag/cell
     absolute magnetization    =    27.80 Bohr mag/cell

     iteration # 13     ecut=    18.00 Ry     beta= 0.20
     CG style diagonalization
     ethr =  2.15E-04,  avg # of iterations =  3.1

     negative rho (up, down):  9.592E-02 9.598E-02

     total cpu time spent up to now is      267.0 secs

     total energy              =   -3171.51017892 Ry
     estimated scf accuracy    <       0.55392122 Ry

     total magnetization       =     0.02 Bohr mag/cell
     absolute magnetization    =    27.57 Bohr mag/cell

     iteration # 14     ecut=    18.00 Ry     beta= 0.20
     CG style diagonalization
     ethr =  1.88E-04,  avg # of iterations =  3.0

     negative rho (up, down):  9.606E-02 9.613E-02

     total cpu time spent up to now is      286.7 secs

     total energy              =   -3171.51565116 Ry
     estimated scf accuracy    <       0.30844808 Ry

     total magnetization       =     0.03 Bohr mag/cell
     absolute magnetization    =    26.70 Bohr mag/cell

     iteration # 15     ecut=    18.00 Ry     beta= 0.20
     CG style diagonalization
     ethr =  1.05E-04,  avg # of iterations =  3.0

     negative rho (up, down):  9.601E-02 9.607E-02

     total cpu time spent up to now is      306.2 secs

     total energy              =   -3171.52488563 Ry
     estimated scf accuracy    <       0.05605473 Ry

     total magnetization       =    -0.02 Bohr mag/cell
     absolute magnetization    =    26.84 Bohr mag/cell

     iteration # 16     ecut=    18.00 Ry     beta= 0.20
     CG style diagonalization
     c_bands:  2 eigenvalues not converged
     c_bands:  1 eigenvalues not converged
     c_bands:  2 eigenvalues not converged
     ethr =  1.91E-05,  avg # of iterations =  3.3

     negative rho (up, down):  9.590E-02 9.595E-02

     total cpu time spent up to now is      328.9 secs

     total energy              =   -3171.52751406 Ry
     estimated scf accuracy    <       0.03286311 Ry

     total magnetization       =     0.01 Bohr mag/cell
     absolute magnetization    =    26.97 Bohr mag/cell

     iteration # 17     ecut=    18.00 Ry     beta= 0.20
     CG style diagonalization
     c_bands:  1 eigenvalues not converged
     c_bands:  1 eigenvalues not converged
     ethr =  1.12E-05,  avg # of iterations =  3.2

     negative rho (up, down):  9.585E-02 9.589E-02

     total cpu time spent up to now is      350.1 secs

     total energy              =   -3171.53013116 Ry
     estimated scf accuracy    <       0.01381639 Ry

     total magnetization       =     0.01 Bohr mag/cell
     absolute magnetization    =    27.08 Bohr mag/cell

     iteration # 18     ecut=    18.00 Ry     beta= 0.20
     CG style diagonalization
     c_bands:  1 eigenvalues not converged
     ethr =  4.70E-06,  avg # of iterations =  3.1

     negative rho (up, down):  9.578E-02 9.581E-02

     total cpu time spent up to now is      370.6 secs

     total energy              =   -3171.53280833 Ry
     estimated scf accuracy    <       0.00723860 Ry

     total magnetization       =     0.00 Bohr mag/cell
     absolute magnetization    =    27.12 Bohr mag/cell

     iteration # 19     ecut=    18.00 Ry     beta= 0.20
     CG style diagonalization
     c_bands:  1 eigenvalues not converged
     c_bands:  1 eigenvalues not converged
     ethr =  2.46E-06,  avg # of iterations =  3.1

     negative rho (up, down):  9.573E-02 9.574E-02

     total cpu time spent up to now is      390.9 secs

     total energy              =   -3171.53465620 Ry
     estimated scf accuracy    <       0.00219255 Ry

     total magnetization       =     0.00 Bohr mag/cell
     absolute magnetization    =    27.18 Bohr mag/cell

     iteration # 20     ecut=    18.00 Ry     beta= 0.20
     CG style diagonalization
     c_bands:  1 eigenvalues not converged
     ethr =  7.46E-07,  avg # of iterations =  3.1

     negative rho (up, down):  9.572E-02 9.572E-02

     Magnetic moment per site:
     atom:    1    charge:   13.2772    magn:   -3.5828    constr:    0.0000
     atom:    2    charge:   13.2712    magn:   -3.4873    constr:    0.0000
     atom:    3    charge:   13.2838    magn:   -3.4701    constr:    0.0000
     atom:    4    charge:   13.2864    magn:    3.4612    constr:    0.0000
     atom:    5    charge:   13.2635    magn:    3.5923    constr:    0.0000
     atom:    6    charge:   13.2641    magn:    3.4949    constr:    0.0000
     atom:    7    charge:   10.4551    magn:   -0.0217    constr:    0.0000
     atom:    8    charge:   10.4554    magn:   -0.0164    constr:    0.0000
     atom:    9    charge:   10.4554    magn:    0.0165    constr:    0.0000
     atom:   10    charge:   10.4538    magn:   -0.0071    constr:    0.0000
     atom:   11    charge:   10.4541    magn:    0.0070    constr:    0.0000
     atom:   12    charge:   10.4555    magn:    0.0214    constr:    0.0000
     atom:   13    charge:    5.3968    magn:   -0.2289    constr:    0.0000
     atom:   14    charge:    5.3968    magn:   -0.2289    constr:    0.0000
     atom:   15    charge:    5.3968    magn:   -0.2289    constr:    0.0000
     atom:   16    charge:    5.3957    magn:   -0.2500    constr:    0.0000
     atom:   17    charge:    5.3957    magn:   -0.2500    constr:    0.0000
     atom:   18    charge:    5.3957    magn:   -0.2500    constr:    0.0000
     atom:   19    charge:    5.3964    magn:    0.2495    constr:    0.0000
     atom:   20    charge:    5.3964    magn:    0.2495    constr:    0.0000
     atom:   21    charge:    5.3964    magn:    0.2495    constr:    0.0000
     atom:   22    charge:    5.3836    magn:    0.0865    constr:    0.0000
     atom:   23    charge:    5.3836    magn:    0.0865    constr:    0.0000
     atom:   24    charge:    5.3836    magn:    0.0865    constr:    0.0000
     atom:   25    charge:    5.3848    magn:   -0.0893    constr:    0.0000
     atom:   26    charge:    5.3848    magn:   -0.0893    constr:    0.0000
     atom:   27    charge:    5.3848    magn:   -0.0893    constr:    0.0000
     atom:   28    charge:    5.3977    magn:    0.2289    constr:    0.0000
     atom:   29    charge:    5.3977    magn:    0.2289    constr:    0.0000
     atom:   30    charge:    5.3977    magn:    0.2289    constr:    0.0000

     total cpu time spent up to now is      410.8 secs

     End of self-consistent calculation

 ------ SPIN UP ------------


          k = 0.0000 0.0000 0.0000 (  3257 PWs)   bands (ev):

   -82.9733 -82.7658 -82.7448 -78.4043 -78.2995 -78.2551 -47.2863 -47.1323
   -47.1323 -47.0892 -47.0031 -46.8295 -46.8295 -46.6973 -46.6973 -42.8769
   -42.7863 -42.7863 -42.7735 -42.6993 -42.5453 -42.5452 -42.3908 -42.3908
   -11.2041 -11.2041 -11.1586 -11.1586 -11.1334 -11.1334 -11.0936 -11.0816
   -11.0684 -11.0684 -11.0597 -11.0596 -11.0419 -11.0419 -11.0389 -11.0214
   -10.9919 -10.9919 -10.9825 -10.9825 -10.9756 -10.9699 -10.9698 -10.9586
   -10.9515 -10.9515 -10.9304 -10.9304 -10.9103 -10.9103  -8.7364  -8.3826
    -8.2553  -7.5819  -7.5171  -7.1810  -7.1808  -7.0472  -7.0472  -7.0289
    -6.9517  -6.9516  -6.8314  -6.8313  -6.6588  -6.6587  -6.4757  -6.4757
     0.6798   0.8795   0.9410   1.6700   1.8095   2.5166   4.8937   4.8937
     4.9989   5.3430   5.3430   5.4303   5.4303   5.4580   5.6718   5.6890
     5.6890   5.9178   5.9910   5.9910   6.1707   6.2647   6.2648   6.3447
     6.3652   6.3652   6.4510   6.6714   6.6714   6.9942   7.1128   7.1128
     7.1594   7.5522   7.6323   7.6323   7.8274   7.8274   7.8941   7.8942
     7.9866   8.1541   8.3069   8.3070   8.4051   8.4051   8.4308   8.5541
     8.6064   8.6065   8.7523   8.7523   8.9222   8.9223   9.1758   9.2470
     9.2471   9.2954   9.2954   9.3761   9.3762   9.7719   9.7719  10.0054
    10.1649  10.1649  10.2122  10.3547  10.4557  10.6052  10.6053  10.6104
    10.6765  11.0776  11.0776  11.5865  11.5865  11.7543  11.7937  11.7937
    11.9214  11.9215  11.9265  12.0490  12.9679  12.9680  13.2321  13.2321
    13.6666  13.6666  14.9247  15.0313  15.1574  15.1879  16.2098  16.2098
    16.4057  16.4057  16.4484  16.4484  16.8196  16.8983  17.0599  17.0599
    17.1531  17.1531  17.5844  17.5844  18.0455  19.5148  19.6385  19.8152
    20.5587  20.5587  20.8922  20.9716  21.5735  21.5735  21.7098  21.7098
    21.9706  21.9708  22.8278  22.9474  22.9478  23.0442  23.1059  23.1061

     occupation numbers 
     1.0000   1.0000   1.0000   1.0000   1.0000   1.0000   1.0000   1.0000
     1.0000   1.0000   1.0000   1.0000   1.0000   1.0000   1.0000   1.0000
     1.0000   1.0000   1.0000   1.0000   1.0000   1.0000   1.0000   1.0000
     1.0000   1.0000   1.0000   1.0000   1.0000   1.0000   1.0000   1.0000
     1.0000   1.0000   1.0000   1.0000   1.0000   1.0000   1.0000   1.0000
     1.0000   1.0000   1.0000   1.0000   1.0000   1.0000   1.0000   1.0000
     1.0000   1.0000   1.0000   1.0000   1.0000   1.0000   1.0000   1.0000
     1.0000   1.0000   1.0000   1.0000   1.0000   1.0000   1.0000   1.0000
     1.0000   1.0000   1.0000   1.0000   1.0000   1.0000   1.0000   1.0000
     1.0000   1.0000   1.0000   1.0000   1.0000   1.0000   1.0000   1.0000
     1.0000   1.0000   1.0000   1.0000   1.0000   1.0000   1.0000   1.0000
     1.0000   1.0000   1.0000   1.0000   1.0000   1.0000   1.0000   1.0000
     1.0000   1.0000   1.0000   1.0000   1.0000   1.0000   1.0000   1.0000
     1.0000   1.0000   1.0000   1.0000   1.0000   1.0000   1.0000   1.0000
     1.0000   1.0000   1.0000   1.0000   1.0000   1.0000   1.0000   1.0000
     1.0000   1.0000   1.0000   1.0000   1.0000   1.0000   1.0000   1.0000
     1.0000   1.0000   1.0000   1.0000   1.0000   1.0000   1.0000   1.0000
     1.0000   1.0000   1.0000   1.0000   1.0000   1.0000   1.0000   1.0000
     1.0000   0.9740   0.9739   0.0004   0.0004   0.0000   0.0000   0.0000
     0.0000   0.0000   0.0000   0.0000   0.0000   0.0000   0.0000   0.0000
     0.0000   0.0000   0.0000   0.0000   0.0000   0.0000   0.0000   0.0000
     0.0000   0.0000   0.0000   0.0000   0.0000   0.0000   0.0000   0.0000
     0.0000   0.0000   0.0000   0.0000   0.0000   0.0000   0.0000   0.0000
     0.0000   0.0000   0.0000   0.0000   0.0000   0.0000   0.0000   0.0000
     0.0000   0.0000   0.0000   0.0000   0.0000   0.0000   0.0000   0.0000

          k = 0.0000-0.5774 0.0000 (  3300 PWs)   bands (ev):

   -83.0006 -82.8037 -82.7896 -78.4235 -78.3413 -78.2997 -47.3412 -47.3011
   -47.1349 -47.1093 -47.0951 -47.0168 -46.9649 -46.9363 -46.8939 -42.9718
   -42.9127 -42.8180 -42.7853 -42.7363 -42.7056 -42.6765 -42.6576 -42.6185
   -11.1979 -11.1605 -11.1383 -11.1345 -11.1282 -11.1163 -11.1077 -11.0894
   -11.0691 -11.0653 -11.0538 -11.0442 -11.0311 -11.0302 -11.0201 -11.0169
   -11.0115 -11.0001 -10.9954 -10.9949 -10.9888 -10.9864 -10.9742 -10.9664
   -10.9577 -10.9508 -10.9454 -10.9325 -10.9263 -10.9123  -8.1331  -8.0961
    -7.9251  -7.7679  -7.7004  -7.3998  -7.3503  -7.3023  -7.1666  -7.0733
    -7.0303  -7.0236  -6.9252  -6.8626  -6.7376  -6.6974  -6.5925  -6.4986
     0.8068   1.0147   1.0387   1.3070   1.3732   1.5573   4.9500   5.2416
     5.2647   5.3754   5.5720   5.6068   5.7157   5.7483   5.8005   5.9088
     5.9254   6.0166   6.0803   6.2273   6.3736   6.4019   6.5264   6.5845
     6.6987   6.7404   6.8457   6.8508   6.9973   7.0566   7.1595   7.2466
     7.3651   7.4022   7.5657   7.6158   7.6512   7.6758   7.8145   7.8555
     7.9042   7.9945   8.0464   8.1139   8.1755   8.1925   8.3039   8.3439
     8.4006   8.4628   8.4777   8.6042   8.8158   8.8892   8.9690   8.9924
     9.0741   9.0918   9.1325   9.2270   9.2729   9.3265   9.4293   9.5833
     9.8796   9.9647  10.0095  10.0729  10.1710  10.3116  10.4340  10.6806
    10.7440  10.7588  10.9349  11.4744  11.5300  11.5825  11.6912  11.7322
    11.8012  11.9329  12.0531  12.1428  12.6420  12.8319  12.8654  12.9887
    13.0471  13.4309  14.1886  14.8642  14.9142  15.1388  15.2228  15.2850
    15.3231  15.3807  15.4732  16.5380  16.6203  16.7076  16.7748  16.8412
    16.9234  16.9982  17.0660  17.1487  19.8614  20.0467  20.3516  20.8063
    20.9099  21.0569  21.5137  21.7523  21.8752  22.1653  22.2090  22.2293
    22.3416  22.3784  22.8003  22.8559  23.0660  23.1100  23.2335  23.2962

     occupation numbers 
     1.0000   1.0000   1.0000   1.0000   1.0000   1.0000   1.0000   1.0000
     1.0000   1.0000   1.0000   1.0000   1.0000   1.0000   1.0000   1.0000
     1.0000   1.0000   1.0000   1.0000   1.0000   1.0000   1.0000   1.0000
     1.0000   1.0000   1.0000   1.0000   1.0000   1.0000   1.0000   1.0000
     1.0000   1.0000   1.0000   1.0000   1.0000   1.0000   1.0000   1.0000
     1.0000   1.0000   1.0000   1.0000   1.0000   1.0000   1.0000   1.0000
     1.0000   1.0000   1.0000   1.0000   1.0000   1.0000   1.0000   1.0000
     1.0000   1.0000   1.0000   1.0000   1.0000   1.0000   1.0000   1.0000
     1.0000   1.0000   1.0000   1.0000   1.0000   1.0000   1.0000   1.0000
     1.0000   1.0000   1.0000   1.0000   1.0000   1.0000   1.0000   1.0000
     1.0000   1.0000   1.0000   1.0000   1.0000   1.0000   1.0000   1.0000
     1.0000   1.0000   1.0000   1.0000   1.0000   1.0000   1.0000   1.0000
     1.0000   1.0000   1.0000   1.0000   1.0000   1.0000   1.0000   1.0000
     1.0000   1.0000   1.0000   1.0000   1.0000   1.0000   1.0000   1.0000
     1.0000   1.0000   1.0000   1.0000   1.0000   1.0000   1.0000   1.0000
     1.0000   1.0000   1.0000   1.0000   1.0000   1.0000   1.0000   1.0000
     1.0000   1.0000   1.0000   1.0000   1.0000   1.0000   1.0000   1.0000
     1.0000   1.0000   1.0000   1.0000   1.0000   1.0000   1.0000   1.0000
     1.0000   1.0000   0.9997   0.0146   0.0029   0.0005   0.0000   0.0000
     0.0000   0.0000   0.0000   0.0000   0.0000   0.0000   0.0000   0.0000
     0.0000   0.0000   0.0000   0.0000   0.0000   0.0000   0.0000   0.0000
     0.0000   0.0000   0.0000   0.0000   0.0000   0.0000   0.0000   0.0000
     0.0000   0.0000   0.0000   0.0000   0.0000   0.0000   0.0000   0.0000
     0.0000   0.0000   0.0000   0.0000   0.0000   0.0000   0.0000   0.0000
     0.0000   0.0000   0.0000   0.0000   0.0000   0.0000   0.0000   0.0000

 ------ SPIN DOWN ----------


          k = 0.0000 0.0000 0.0000 (  3257 PWs)   bands (ev):

   -83.0108 -82.7713 -82.7557 -78.3811 -78.3119 -78.2511 -47.3183 -47.1622
   -47.1621 -47.0993 -47.0115 -46.8353 -46.8353 -46.7134 -46.7134 -42.8569
   -42.7824 -42.7728 -42.7728 -42.6956 -42.5529 -42.5529 -42.3821 -42.3821
   -11.2035 -11.2035 -11.1589 -11.1589 -11.1332 -11.1332 -11.0917 -11.0827
   -11.0685 -11.0684 -11.0573 -11.0573 -11.0435 -11.0435 -11.0399 -11.0200
   -10.9910 -10.9910 -10.9829 -10.9829 -10.9751 -10.9688 -10.9688 -10.9595
   -10.9522 -10.9522 -10.9283 -10.9283 -10.9125 -10.9125  -8.7361  -8.3853
    -8.2542  -7.5810  -7.5188  -7.1799  -7.1797  -7.0491  -7.0490  -7.0292
    -6.9549  -6.9548  -6.8323  -6.8322  -6.6582  -6.6582  -6.4746  -6.4745
     0.6804   0.8796   0.9412   1.6701   1.8098   2.5169   4.8924   4.8924
     4.9980   5.3401   5.3401   5.4272   5.4273   5.4552   5.6705   5.6831
     5.6831   5.9141   5.9879   5.9879   6.1667   6.2599   6.2599   6.3425
     6.3629   6.3629   6.4498   6.6693   6.6693   6.9913   7.1022   7.1022
     7.1551   7.5436   7.6275   7.6275   7.8234   7.8234   7.8922   7.8922
     7.9826   8.1434   8.3054   8.3055   8.3981   8.3981   8.4291   8.5492
     8.6042   8.6043   8.7476   8.7476   8.9225   8.9225   9.1750   9.2473
     9.2474   9.2946   9.2947   9.3744   9.3745   9.7714   9.7715  10.0043
    10.1582  10.1582  10.2079  10.3567  10.4600  10.6034  10.6035  10.6079
    10.6763  11.0715  11.0716  11.6002  11.6002  11.7525  11.7912  11.7912
    11.9312  11.9312  11.9331  12.0335  12.9756  12.9756  13.2259  13.2259
    13.6701  13.6702  14.9253  15.0310  15.1581  15.1875  16.2108  16.2109
    16.4056  16.4056  16.4487  16.4487  16.8193  16.8985  17.0599  17.0599
    17.1539  17.1540  17.5845  17.5846  18.0447  19.5143  19.6379  19.8149
    20.5588  20.5589  20.8922  20.9709  21.5734  21.5734  21.7099  21.7099
    21.9713  21.9713  22.8272  22.9474  22.9475  23.0440  23.1071  23.1078

     occupation numbers 
     1.0000   1.0000   1.0000   1.0000   1.0000   1.0000   1.0000   1.0000
     1.0000   1.0000   1.0000   1.0000   1.0000   1.0000   1.0000   1.0000
     1.0000   1.0000   1.0000   1.0000   1.0000   1.0000   1.0000   1.0000
     1.0000   1.0000   1.0000   1.0000   1.0000   1.0000   1.0000   1.0000
     1.0000   1.0000   1.0000   1.0000   1.0000   1.0000   1.0000   1.0000
     1.0000   1.0000   1.0000   1.0000   1.0000   1.0000   1.0000   1.0000
     1.0000   1.0000   1.0000   1.0000   1.0000   1.0000   1.0000   1.0000
     1.0000   1.0000   1.0000   1.0000   1.0000   1.0000   1.0000   1.0000
     1.0000   1.0000   1.0000   1.0000   1.0000   1.0000   1.0000   1.0000
     1.0000   1.0000   1.0000   1.0000   1.0000   1.0000   1.0000   1.0000
     1.0000   1.0000   1.0000   1.0000   1.0000   1.0000   1.0000   1.0000
     1.0000   1.0000   1.0000   1.0000   1.0000   1.0000   1.0000   1.0000
     1.0000   1.0000   1.0000   1.0000   1.0000   1.0000   1.0000   1.0000
     1.0000   1.0000   1.0000   1.0000   1.0000   1.0000   1.0000   1.0000
     1.0000   1.0000   1.0000   1.0000   1.0000   1.0000   1.0000   1.0000
     1.0000   1.0000   1.0000   1.0000   1.0000   1.0000   1.0000   1.0000
     1.0000   1.0000   1.0000   1.0000   1.0000   1.0000   1.0000   1.0000
     1.0000   1.0000   1.0000   1.0000   1.0000   1.0000   1.0000   1.0000
     1.0000   0.9776   0.9775   0.0002   0.0002   0.0000   0.0000   0.0000
     0.0000   0.0000   0.0000   0.0000   0.0000   0.0000   0.0000   0.0000
     0.0000   0.0000   0.0000   0.0000   0.0000   0.0000   0.0000   0.0000
     0.0000   0.0000   0.0000   0.0000   0.0000   0.0000   0.0000   0.0000
     0.0000   0.0000   0.0000   0.0000   0.0000   0.0000   0.0000   0.0000
     0.0000   0.0000   0.0000   0.0000   0.0000   0.0000   0.0000   0.0000
     0.0000   0.0000   0.0000   0.0000   0.0000   0.0000   0.0000   0.0000

          k = 0.0000-0.5774 0.0000 (  3300 PWs)   bands (ev):

   -83.0393 -82.8075 -82.8010 -78.3923 -78.3599 -78.2974 -47.3714 -47.3332
   -47.1480 -47.1443 -47.1080 -47.0244 -46.9746 -46.9371 -46.9068 -42.9630
   -42.8951 -42.8244 -42.7746 -42.7108 -42.7094 -42.6741 -42.6725 -42.6146
   -11.1973 -11.1609 -11.1376 -11.1332 -11.1297 -11.1157 -11.1081 -11.0886
   -11.0685 -11.0658 -11.0525 -11.0428 -11.0315 -11.0296 -11.0207 -11.0156
   -11.0127 -11.0002 -10.9950 -10.9936 -10.9899 -10.9871 -10.9729 -10.9652
   -10.9583 -10.9522 -10.9421 -10.9308 -10.9287 -10.9147  -8.1314  -8.0970
    -7.9286  -7.7687  -7.7000  -7.4009  -7.3495  -7.3011  -7.1693  -7.0754
    -7.0309  -7.0237  -6.9278  -6.8620  -6.7385  -6.6976  -6.5915  -6.4976
     0.8073   1.0144   1.0394   1.3075   1.3732   1.5575   4.9458   5.2353
     5.2620   5.3658   5.5683   5.6022   5.7139   5.7475   5.7972   5.9054
     5.9210   6.0132   6.0772   6.2244   6.3710   6.3987   6.5177   6.5782
     6.6968   6.7377   6.8408   6.8442   6.9925   7.0502   7.1550   7.2440
     7.3610   7.3993   7.5634   7.6099   7.6491   7.6736   7.8134   7.8536
     7.9023   7.9873   8.0455   8.1080   8.1698   8.1893   8.3014   8.3426
     8.3994   8.4611   8.4735   8.6032   8.8150   8.8874   8.9639   8.9908
     9.0747   9.0916   9.1320   9.2258   9.2708   9.3261   9.4277   9.5797
     9.8799   9.9588  10.0074  10.0689  10.1707  10.3096  10.4310  10.6791
    10.7429  10.7582  10.9299  11.4800  11.5468  11.5971  11.6719  11.7466
    11.8065  11.9208  12.0454  12.1550  12.6360  12.8428  12.8744  12.9862
    13.0424  13.4331  14.1889  14.8640  14.9149  15.1391  15.2227  15.2852
    15.3236  15.3813  15.4733  16.5385  16.6202  16.7083  16.7748  16.8401
    16.9247  16.9987  17.0661  17.1487  19.8591  20.0452  20.3503  20.8052
    20.9124  21.0569  21.5133  21.7529  21.8754  22.1656  22.2098  22.2291
    22.3415  22.3789  22.8003  22.8565  23.0669  23.1100  23.2326  23.2882

     occupation numbers 
     1.0000   1.0000   1.0000   1.0000   1.0000   1.0000   1.0000   1.0000
     1.0000   1.0000   1.0000   1.0000   1.0000   1.0000   1.0000   1.0000
     1.0000   1.0000   1.0000   1.0000   1.0000   1.0000   1.0000   1.0000
     1.0000   1.0000   1.0000   1.0000   1.0000   1.0000   1.0000   1.0000
     1.0000   1.0000   1.0000   1.0000   1.0000   1.0000   1.0000   1.0000
     1.0000   1.0000   1.0000   1.0000   1.0000   1.0000   1.0000   1.0000
     1.0000   1.0000   1.0000   1.0000   1.0000   1.0000   1.0000   1.0000
     1.0000   1.0000   1.0000   1.0000   1.0000   1.0000   1.0000   1.0000
     1.0000   1.0000   1.0000   1.0000   1.0000   1.0000   1.0000   1.0000
     1.0000   1.0000   1.0000   1.0000   1.0000   1.0000   1.0000   1.0000
     1.0000   1.0000   1.0000   1.0000   1.0000   1.0000   1.0000   1.0000
     1.0000   1.0000   1.0000   1.0000   1.0000   1.0000   1.0000   1.0000
     1.0000   1.0000   1.0000   1.0000   1.0000   1.0000   1.0000   1.0000
     1.0000   1.0000   1.0000   1.0000   1.0000   1.0000   1.0000   1.0000
     1.0000   1.0000   1.0000   1.0000   1.0000   1.0000   1.0000   1.0000
     1.0000   1.0000   1.0000   1.0000   1.0000   1.0000   1.0000   1.0000
     1.0000   1.0000   1.0000   1.0000   1.0000   1.0000   1.0000   1.0000
     1.0000   1.0000   1.0000   1.0000   1.0000   1.0000   1.0000   1.0000
     1.0000   1.0000   0.9997   0.0125   0.0017   0.0003   0.0000   0.0000
     0.0000   0.0000   0.0000   0.0000   0.0000   0.0000   0.0000   0.0000
     0.0000   0.0000   0.0000   0.0000   0.0000   0.0000   0.0000   0.0000
     0.0000   0.0000   0.0000   0.0000   0.0000   0.0000   0.0000   0.0000
     0.0000   0.0000   0.0000   0.0000   0.0000   0.0000   0.0000   0.0000
     0.0000   0.0000   0.0000   0.0000   0.0000   0.0000   0.0000   0.0000
     0.0000   0.0000   0.0000   0.0000   0.0000   0.0000   0.0000   0.0000

     the Fermi energy is    11.2645 ev

!    total energy              =   -3171.53521545 Ry
     estimated scf accuracy    <       0.00084250 Ry
     smearing contrib. (-TS)   =      -0.00088049 Ry
     internal energy E=F+TS    =   -3171.53433496 Ry

     The total energy is F=E-TS. E is the sum of the following terms:
     one-electron contribution =   -1269.56454352 Ry
     hartree contribution      =     808.91462276 Ry
     xc contribution           =    -683.23528474 Ry
     ewald contribution        =   -2027.64912945 Ry

     total magnetization       =     0.00 Bohr mag/cell
     absolute magnetization    =    27.23 Bohr mag/cell

     convergence has been achieved in  20 iterations

     Writing output data file /home/aldair1809/Documentos/QE/4BFO/UHUBBARD/temp/pseudo_o_pbesol_v1.2.uspp.F.UPF_ecutwfc_18.in/bifeo3-scf.save/

     init_run     :      5.45s CPU      5.56s WALL (       1 calls)
     electrons    :    396.98s CPU    404.83s WALL (       1 calls)

     Called by init_run:
     wfcinit      :      4.77s CPU      4.82s WALL (       1 calls)
     wfcinit:atom :      0.01s CPU      0.01s WALL (       4 calls)
     wfcinit:wfcr :      4.70s CPU      4.74s WALL (       4 calls)
     potinit      :      0.12s CPU      0.12s WALL (       1 calls)
     hinit0       :      0.35s CPU      0.35s WALL (       1 calls)

     Called by electrons:
     c_bands      :    362.31s CPU    369.58s WALL (      20 calls)
     sum_band     :     29.65s CPU     30.19s WALL (      20 calls)
     v_of_rho     :      0.56s CPU      0.59s WALL (      21 calls)
     v_h          :      0.01s CPU      0.01s WALL (      21 calls)
     v_xc         :      0.55s CPU      0.58s WALL (      21 calls)
     newd         :      4.52s CPU      4.59s WALL (      21 calls)
     mix_rho      :      0.13s CPU      0.13s WALL (      20 calls)

     Called by c_bands:
     init_us_2    :      0.57s CPU      0.58s WALL (     164 calls)
     ccgdiagg     :    273.94s CPU    280.23s WALL (      80 calls)
     wfcrot       :     92.52s CPU     93.52s WALL (      80 calls)

     Called by sum_band:
     sum_band:wei :      0.02s CPU      0.02s WALL (      20 calls)
     sum_band:loo :     24.08s CPU     24.60s WALL (      20 calls)
     sum_band:buf :      0.10s CPU      0.10s WALL (      80 calls)
     sum_band:ini :      0.29s CPU      0.29s WALL (      80 calls)
     sum_band:cal :     19.03s CPU     19.11s WALL (      80 calls)
     sum_band:bec :      0.41s CPU      0.41s WALL (      80 calls)
     addusdens    :      5.40s CPU      5.41s WALL (      20 calls)
     addusd:skk   :      0.02s CPU      0.02s WALL (      80 calls)
     addusd:dgemm :      2.51s CPU      2.52s WALL (     160 calls)
     addusd:qvan2 :      2.79s CPU      2.79s WALL (     160 calls)

     Called by *cgdiagg:
     h_psi        :    156.90s CPU    161.87s WALL (   33886 calls)
     s_psi        :    100.28s CPU    101.19s WALL (   67692 calls)

     Called by h_psi:
     h_psi:calbec :     65.63s CPU     68.23s WALL (   33886 calls)
     vloc_psi     :     30.19s CPU     32.26s WALL (   33886 calls)
     add_vuspsi   :     60.38s CPU     60.75s WALL (   33886 calls)
     hs_1psi      :    151.95s CPU    156.43s WALL (   33806 calls)
     s_1psi       :     85.43s CPU     86.88s WALL (   33806 calls)

     General routines
     calbec       :    128.62s CPU    132.59s WALL (   67772 calls)
     fft          :      0.17s CPU      0.20s WALL (     439 calls)
     ffts         :      0.02s CPU      0.02s WALL (      40 calls)
     fftw         :     30.33s CPU     32.58s WALL (  115644 calls)

     Parallel routines
     fft_scatt_xy :      3.76s CPU      4.04s WALL (  116123 calls)
     fft_scatt_yz :      6.61s CPU      7.18s WALL (  116123 calls)

     PWSCF        :   6m42.87s CPU   6m50.94s WALL


   This run was terminated on:  21:49:30  28Sep2024            

=------------------------------------------------------------------------------=
   JOB DONE.
=------------------------------------------------------------------------------=
