
     Program PWSCF v.6.7MaX starts on 28Sep2024 at 21: 6:26 

     This program is part of the open-source Quantum ESPRESSO suite
     for quantum simulation of materials; please cite
         "P. Giannozzi et al., J. Phys.:Condens. Matter 21 395502 (2009);
         "P. Giannozzi et al., J. Phys.:Condens. Matter 29 465901 (2017);
          URL http://www.quantum-espresso.org", 
     in publications or presentations arising from this work. More details at
     http://www.quantum-espresso.org/quote

     Parallel version (MPI), running on     4 processors

     MPI processes distributed on     1 nodes
     R & G space division:  proc/nbgrp/npool/nimage =       4
     Waiting for input...
     Reading input from standard input

     Current dimensions of program PWSCF are:
     Max number of different atomic species (ntypx) = 10
     Max number of k-points (npk) =  40000
     Max angular momentum in pseudopotentials (lmaxx) =  3
     Message from routine iosys:
     wrong startingpot: use default (1)

     Subspace diagonalization in iterative solution of the eigenvalue problem:
     one sub-group per band group will be used
     scalapack distributed-memory algorithm (size of sub-group:  2*  2 procs)

     Message from routine setup:
     using ibrav=0 with symmetry is DISCOURAGED, use correct ibrav instead

     Parallelization info
     --------------------
     sticks:   dense  smooth     PW     G-vecs:    dense   smooth      PW
     Min         112     112     34                 4962     4962     795
     Max         113     113     35                 4971     4971     797
     Sum         451     451    139                19871    19871    3185



     bravais-lattice index     =            0
     lattice parameter (alat)  =      10.5468  a.u.
     unit-cell volume          =    2535.5110 (a.u.)^3
     number of atoms/cell      =           30
     number of atomic types    =            4
     number of electrons       =       294.00
     number of Kohn-Sham states=          200
     kinetic-energy cutoff     =      15.0000  Ry
     charge density cutoff     =      60.0000  Ry
     scf convergence threshold =      1.0E-03
     mixing beta               =       0.2000
     number of iterations used =            8  plain     mixing
     Exchange-correlation=  SLA  PW   PBX  PBC
                           (   1   4   3   4   0   0   0)

     celldm(1)=  10.546849  celldm(2)=   0.000000  celldm(3)=   0.000000
     celldm(4)=   0.000000  celldm(5)=   0.000000  celldm(6)=   0.000000

     crystal axes: (cart. coord. in units of alat)
               a(1) = (   1.000000  -0.000000  -0.000000 )  
               a(2) = (  -0.500000   0.866025  -0.000000 )  
               a(3) = (   0.000000  -0.000000   2.495552 )  

     reciprocal axes: (cart. coord. in units 2 pi/alat)
               b(1) = (  1.000000  0.577350  0.000000 )  
               b(2) = (  0.000000  1.154701  0.000000 )  
               b(3) = (  0.000000  0.000000  0.400713 )  


     PseudoPot. # 1 for O  read from file:
     /home/aldair1809/Programas/QE/q-e-qe-7.3/pseudo/o_pbe_v1.2.uspp.F.UPF
     MD5 check sum: 734c27235a0248c51dbae37a1fbe46ec
     Pseudo is Ultrasoft + core correction, Zval =  6.0
     Generated by new atomic code, or converted to UPF format
     Using radial grid of  737 points,  5 beta functions with: 
                l(1) =   0
                l(2) =   0
                l(3) =   1
                l(4) =   1
                l(5) =   2
     Q(r) pseudized with  8 coefficients,  rinner =    0.900   0.900   0.900
                                                       0.900   0.900

     PseudoPot. # 2 for Bi read from file:
     /home/aldair1809/Programas/QE/q-e-qe-7.3/pseudo/bi_pbe_v1.uspp.F.UPF
     MD5 check sum: cceb9f28ec65b6d7ff33140f5b0b1758
     Pseudo is Ultrasoft + core correction, Zval = 15.0
     Generated by new atomic code, or converted to UPF format
     Using radial grid of  899 points,  6 beta functions with: 
                l(1) =   0
                l(2) =   0
                l(3) =   1
                l(4) =   1
                l(5) =   2
                l(6) =   2
     Q(r) pseudized with  6 coefficients,  rinner =    1.000   1.000   1.000
                                                       1.000   1.000

     PseudoPot. # 3 for Fe read from file:
     /home/aldair1809/Programas/QE/q-e-qe-7.3/pseudo/fe_pbe_v1.5.uspp.F.UPF
     MD5 check sum: a130daea23fe5165f5d574ae7f82ed95
     Pseudo is Ultrasoft + core correction, Zval = 16.0
     Generated by new atomic code, or converted to UPF format
     Using radial grid of  861 points,  6 beta functions with: 
                l(1) =   0
                l(2) =   0
                l(3) =   1
                l(4) =   1
                l(5) =   2
                l(6) =   2
     Q(r) pseudized with  8 coefficients,  rinner =    1.000   1.000   1.000
                                                       1.000   1.000

     PseudoPot. # 4 for Fe read from file:
     /home/aldair1809/Programas/QE/q-e-qe-7.3/pseudo/fe_pbe_v1.5.uspp.F.UPF
     MD5 check sum: a130daea23fe5165f5d574ae7f82ed95
     Pseudo is Ultrasoft + core correction, Zval = 16.0
     Generated by new atomic code, or converted to UPF format
     Using radial grid of  861 points,  6 beta functions with: 
                l(1) =   0
                l(2) =   0
                l(3) =   1
                l(4) =   1
                l(5) =   2
                l(6) =   2
     Q(r) pseudized with  8 coefficients,  rinner =    1.000   1.000   1.000
                                                       1.000   1.000

     atomic species   valence    mass     pseudopotential
        O              6.00    15.99940     O ( 1.00)
        Bi            15.00   208.98040     Bi( 1.00)
        Fe1           16.00    55.84500     Fe( 1.00)
        Fe2           16.00    55.84500     Fe( 1.00)

     Starting magnetic structure 
     atomic species   magnetization
        O            0.000
        Bi           0.000
        Fe1         -0.800
        Fe2          0.800

      3 Sym. Ops. (no inversion) found


                                    s                        frac. trans.

      isym =  1     identity                                     

 cryst.   s( 1) = (     1          0          0      )
                  (     0          1          0      )
                  (     0          0          1      )

 cart.    s( 1) = (  1.0000000 -0.0000000  0.0000000 )
                  (  0.0000000  1.0000000  0.0000000 )
                  (  0.0000000  0.0000000  1.0000000 )


      isym =  2     120 deg rotation - cryst. axis [0,0,1]       

 cryst.   s( 2) = (     0          1          0      )
                  (    -1         -1          0      )
                  (     0          0          1      )

 cart.    s( 2) = ( -0.5000000 -0.8660254  0.0000000 )
                  (  0.8660254 -0.5000000  0.0000000 )
                  (  0.0000000  0.0000000  1.0000000 )


      isym =  3     120 deg rotation - cryst. axis [0,0,-1]      

 cryst.   s( 3) = (    -1         -1          0      )
                  (     1          0          0      )
                  (     0          0          1      )

 cart.    s( 3) = ( -0.5000000  0.8660254  0.0000000 )
                  ( -0.8660254 -0.5000000  0.0000000 )
                  (  0.0000000  0.0000000  1.0000000 )


   Cartesian axes

     site n.     atom                  positions (alat units)
         1           Fe1 tau(   1) = (   0.0000000   0.0000000   1.9384582  )
         2           Fe1 tau(   2) = (  -0.0000005   0.5773506   2.3615556  )
         3           Fe1 tau(   3) = (   0.5000005   0.2886748   1.5200787  )
         4           Fe2 tau(   4) = (   0.5000005   0.2886748   0.2722626  )
         5           Fe2 tau(   5) = (   0.0000000   0.0000000   0.6907071  )
         6           Fe2 tau(   6) = (  -0.0000005   0.5773506   1.1137452  )
         7           Bi  tau(   7) = (   0.5000005   0.2886748   2.0843143  )
         8           Bi  tau(   8) = (  -0.0000005   0.5773506   1.6713980  )
         9           Bi  tau(   9) = (  -0.0000005   0.5773506   0.4235448  )
        10           Bi  tau(  10) = (   0.0000000   0.0000000   0.0002821  )
        11           Bi  tau(  11) = (   0.0000000   0.0000000   1.2481025  )
        12           Bi  tau(  12) = (   0.5000005   0.2886748   0.8364865  )
        13           O   tau(  13) = (  -0.3105904   0.6551932   2.2011299  )
        14           O   tau(  14) = (   0.0878817   0.2694488   2.2011299  )
        15           O   tau(  15) = (   0.2227102   0.8074080   2.2011299  )
        16           O   tau(  16) = (   0.4087504   0.5589755   1.7846473  )
        17           O   tau(  17) = (   0.3115373   0.0745013   1.7846473  )
        18           O   tau(  18) = (   0.7797108   0.2325494   1.7846473  )
        19           O   tau(  19) = (   0.6884743   0.0745026   0.5368244  )
        20           O   tau(  20) = (   0.5912412   0.5589858   0.5368244  )
        21           O   tau(  21) = (   0.2202830   0.2325379   0.5368244  )
        22           O   tau(  22) = (  -0.0823010   0.8482993   0.1166193  )
        23           O   tau(  23) = (  -0.1934983   0.3706010   0.1166193  )
        24           O   tau(  24) = (   0.2757993   0.5131505   0.1166193  )
        25           O   tau(  25) = (   0.1934855   0.3705936   1.3644430  )
        26           O   tau(  26) = (   0.0823138   0.8482919   1.3644430  )
        27           O   tau(  27) = (  -0.2757993   0.5131653   1.3644430  )
        28           O   tau(  28) = (  -0.0878870   0.2694458   0.9533686  )
        29           O   tau(  29) = (   0.3105971   0.6551893   0.9533686  )
        30           O   tau(  30) = (  -0.2227086   0.8074149   0.9533686  )

   Crystallographic axes

     site n.     atom                  positions (cryst. coord.)
         1           Fe1 tau(   1) = (  0.0000000  0.0000000  0.7767652  )
         2           Fe1 tau(   2) = (  0.3333330  0.6666670  0.9463058  )
         3           Fe1 tau(   3) = (  0.6666670  0.3333330  0.6091152  )
         4           Fe2 tau(   4) = (  0.6666670  0.3333330  0.1090991  )
         5           Fe2 tau(   5) = (  0.0000000  0.0000000  0.2767753  )
         6           Fe2 tau(   6) = (  0.3333330  0.6666670  0.4462921  )
         7           Bi  tau(   7) = (  0.6666670  0.3333330  0.8352117  )
         8           Bi  tau(   8) = (  0.3333330  0.6666670  0.6697508  )
         9           Bi  tau(   9) = (  0.3333330  0.6666670  0.1697199  )
        10           Bi  tau(  10) = (  0.0000000  0.0000000  0.0001130  )
        11           Bi  tau(  11) = (  0.0000000  0.0000000  0.5001308  )
        12           Bi  tau(  12) = (  0.6666670  0.3333330  0.3351910  )
        13           O   tau(  13) = (  0.0676856  0.7565520  0.8820212  )
        14           O   tau(  14) = (  0.2434480  0.3111326  0.8820212  )
        15           O   tau(  15) = (  0.6888674  0.9323144  0.8820212  )
        16           O   tau(  16) = (  0.7314750  0.6454493  0.7151312  )
        17           O   tau(  17) = (  0.3545507  0.0860267  0.7151312  )
        18           O   tau(  18) = (  0.9139733  0.2685250  0.7151312  )
        19           O   tau(  19) = (  0.7314884  0.0860282  0.2151125  )
        20           O   tau(  20) = (  0.9139718  0.6454612  0.2151125  )
        21           O   tau(  21) = (  0.3545388  0.2685116  0.2151125  )
        22           O   tau(  22) = (  0.4074649  0.9795317  0.0467309  )
        23           O   tau(  23) = (  0.0204683  0.4279331  0.0467309  )
        24           O   tau(  24) = (  0.5720669  0.5925351  0.0467309  )
        25           O   tau(  25) = (  0.4074478  0.4279246  0.5467499  )
        26           O   tau(  26) = (  0.5720754  0.9795232  0.5467499  )
        27           O   tau(  27) = (  0.0204768  0.5925522  0.5467499  )
        28           O   tau(  28) = (  0.0676775  0.3111292  0.3820271  )
        29           O   tau(  29) = (  0.6888708  0.7565474  0.3820271  )
        30           O   tau(  30) = (  0.2434526  0.9323225  0.3820271  )

     number of k points=     2  Gaussian smearing, width (Ry)=  0.0100
                       cart. coord. in units 2pi/alat
        k(    1) = (   0.0000000   0.0000000   0.0000000), wk =   0.2500000
        k(    2) = (   0.0000000  -0.5773503   0.0000000), wk =   0.7500000

                       cryst. coord.
        k(    1) = (   0.0000000   0.0000000   0.0000000), wk =   0.2500000
        k(    2) = (   0.0000000  -0.5000000   0.0000000), wk =   0.7500000

     Dense  grid:    19871 G-vectors     FFT dimensions: (  25,  25,  72)

     Dynamical RAM for                 wfc:       1.90 MB

     Dynamical RAM for     wfc (w. buffer):       9.48 MB

     Dynamical RAM for           str. fact:       0.30 MB

     Dynamical RAM for           local pot:       0.00 MB

     Dynamical RAM for          nlocal pot:       4.26 MB

     Dynamical RAM for                qrad:       2.49 MB

     Dynamical RAM for          rho,v,vnew:       0.97 MB

     Dynamical RAM for               rhoin:       0.32 MB

     Dynamical RAM for            rho*nmix:       2.43 MB

     Dynamical RAM for           G-vectors:       0.32 MB

     Dynamical RAM for          h,s,v(r/c):       0.46 MB

     Dynamical RAM for          <psi|beta>:       1.37 MB

     Dynamical RAM for      wfcinit/wfcrot:       4.82 MB

     Dynamical RAM for           addusdens:      15.55 MB

     Estimated static dynamical RAM per process >      21.47 MB

     Estimated max dynamical RAM per process >      37.02 MB

     Estimated total dynamical RAM >     148.09 MB

     Check: negative core charge=   -0.002650
     Generating pointlists ...
     new r_m :   0.1458 (alat units)  1.5374 (a.u.) for type    1
     new r_m :   0.1687 (alat units)  1.7788 (a.u.) for type    2
     new r_m :   0.1458 (alat units)  1.5374 (a.u.) for type    3
     new r_m :   0.1458 (alat units)  1.5374 (a.u.) for type    4

     Initial potential from superposition of free atoms

     starting charge  281.99969, renormalised to  294.00000

     negative rho (up, down):  2.561E-01 2.561E-01
     Starting wfcs are  204 randomized atomic wfcs

     total cpu time spent up to now is        4.9 secs

     Self-consistent Calculation

     iteration #  1     ecut=    15.00 Ry     beta= 0.20
     CG style diagonalization
     ethr =  1.00E-02,  avg # of iterations =  3.1

     negative rho (up, down):  1.889E-01 1.890E-01

     total cpu time spent up to now is       24.6 secs

     total energy              =   -3139.48698457 Ry
     estimated scf accuracy    <      63.59095646 Ry

     total magnetization       =     0.03 Bohr mag/cell
     absolute magnetization    =    27.04 Bohr mag/cell

     iteration #  2     ecut=    15.00 Ry     beta= 0.20
     CG style diagonalization
     ethr =  1.00E-02,  avg # of iterations =  3.2

     negative rho (up, down):  1.531E-01 1.531E-01

     total cpu time spent up to now is       41.6 secs

     total energy              =   -3140.22580013 Ry
     estimated scf accuracy    <      21.62204507 Ry

     total magnetization       =    -0.00 Bohr mag/cell
     absolute magnetization    =    29.98 Bohr mag/cell

     iteration #  3     ecut=    15.00 Ry     beta= 0.20
     CG style diagonalization
     ethr =  7.35E-03,  avg # of iterations =  3.3

     negative rho (up, down):  1.539E-01 1.539E-01

     total cpu time spent up to now is       61.3 secs

     total energy              =   -3142.69262698 Ry
     estimated scf accuracy    <      10.44341622 Ry

     total magnetization       =    -0.15 Bohr mag/cell
     absolute magnetization    =    21.99 Bohr mag/cell

     iteration #  4     ecut=    15.00 Ry     beta= 0.20
     CG style diagonalization
     ethr =  3.55E-03,  avg # of iterations =  3.0

     negative rho (up, down):  1.417E-01 1.417E-01

     total cpu time spent up to now is       77.3 secs

     total energy              =   -3147.79144204 Ry
     estimated scf accuracy    <      26.64326649 Ry

     total magnetization       =    -0.13 Bohr mag/cell
     absolute magnetization    =    16.10 Bohr mag/cell

     iteration #  5     ecut=    15.00 Ry     beta= 0.20
     CG style diagonalization
     ethr =  3.55E-03,  avg # of iterations =  3.1

     negative rho (up, down):  1.428E-01 1.428E-01

     total cpu time spent up to now is       96.2 secs

     total energy              =   -3148.37289255 Ry
     estimated scf accuracy    <      51.67121576 Ry

     total magnetization       =    -0.33 Bohr mag/cell
     absolute magnetization    =     6.04 Bohr mag/cell

     iteration #  6     ecut=    15.00 Ry     beta= 0.20
     CG style diagonalization
     ethr =  3.55E-03,  avg # of iterations =  3.0

     negative rho (up, down):  1.438E-01 1.438E-01

     total cpu time spent up to now is      111.1 secs

     total energy              =   -3147.35745319 Ry
     estimated scf accuracy    <      43.18196729 Ry

     total magnetization       =     0.14 Bohr mag/cell
     absolute magnetization    =     6.65 Bohr mag/cell

     iteration #  7     ecut=    15.00 Ry     beta= 0.20
     CG style diagonalization
     ethr =  3.55E-03,  avg # of iterations =  3.0

     negative rho (up, down):  1.483E-01 1.483E-01

     total cpu time spent up to now is      125.8 secs

     total energy              =   -3144.12040067 Ry
     estimated scf accuracy    <      35.43149156 Ry

     total magnetization       =    -0.31 Bohr mag/cell
     absolute magnetization    =     8.04 Bohr mag/cell

     iteration #  8     ecut=    15.00 Ry     beta= 0.20
     CG style diagonalization
     ethr =  3.55E-03,  avg # of iterations =  3.0

     negative rho (up, down):  1.479E-01 1.479E-01

     total cpu time spent up to now is      140.5 secs

     total energy              =   -3145.09929682 Ry
     estimated scf accuracy    <       8.14784889 Ry

     total magnetization       =    -0.57 Bohr mag/cell
     absolute magnetization    =    15.02 Bohr mag/cell

     iteration #  9     ecut=    15.00 Ry     beta= 0.20
     CG style diagonalization
     ethr =  2.77E-03,  avg # of iterations =  3.0

     negative rho (up, down):  1.477E-01 1.478E-01

     total cpu time spent up to now is      155.1 secs

     total energy              =   -3145.17540322 Ry
     estimated scf accuracy    <       7.22183483 Ry

     total magnetization       =     0.42 Bohr mag/cell
     absolute magnetization    =    14.65 Bohr mag/cell

     iteration # 10     ecut=    15.00 Ry     beta= 0.20
     CG style diagonalization
     ethr =  2.46E-03,  avg # of iterations =  3.0

     negative rho (up, down):  1.496E-01 1.498E-01

     total cpu time spent up to now is      169.8 secs

     total energy              =   -3144.79317373 Ry
     estimated scf accuracy    <       8.74435927 Ry

     total magnetization       =    -1.22 Bohr mag/cell
     absolute magnetization    =    14.30 Bohr mag/cell

     iteration # 11     ecut=    15.00 Ry     beta= 0.20
     CG style diagonalization
     ethr =  2.46E-03,  avg # of iterations =  3.0

     negative rho (up, down):  1.504E-01 1.506E-01

     total cpu time spent up to now is      184.4 secs

     total energy              =   -3144.99669450 Ry
     estimated scf accuracy    <       0.85504346 Ry

     total magnetization       =    -0.05 Bohr mag/cell
     absolute magnetization    =    16.84 Bohr mag/cell

     iteration # 12     ecut=    15.00 Ry     beta= 0.20
     CG style diagonalization
     ethr =  2.91E-04,  avg # of iterations =  3.1

     negative rho (up, down):  1.509E-01 1.513E-01

     total cpu time spent up to now is      200.2 secs

     total energy              =   -3145.04620045 Ry
     estimated scf accuracy    <       0.26675700 Ry

     total magnetization       =    -0.06 Bohr mag/cell
     absolute magnetization    =    17.30 Bohr mag/cell

     iteration # 13     ecut=    15.00 Ry     beta= 0.20
     CG style diagonalization
     ethr =  9.07E-05,  avg # of iterations =  3.2

     negative rho (up, down):  1.509E-01 1.514E-01

     total cpu time spent up to now is      216.0 secs

     total energy              =   -3145.10937947 Ry
     estimated scf accuracy    <       0.08181044 Ry

     total magnetization       =    -0.03 Bohr mag/cell
     absolute magnetization    =    16.88 Bohr mag/cell

     iteration # 14     ecut=    15.00 Ry     beta= 0.20
     CG style diagonalization
     c_bands:  1 eigenvalues not converged
     ethr =  2.78E-05,  avg # of iterations =  3.2

     negative rho (up, down):  1.510E-01 1.514E-01

     total cpu time spent up to now is      232.0 secs

     total energy              =   -3145.15258983 Ry
     estimated scf accuracy    <       0.05517132 Ry

     total magnetization       =    -0.03 Bohr mag/cell
     absolute magnetization    =    15.29 Bohr mag/cell

     iteration # 15     ecut=    15.00 Ry     beta= 0.20
     CG style diagonalization
     ethr =  1.88E-05,  avg # of iterations =  3.0

     negative rho (up, down):  1.512E-01 1.516E-01

     total cpu time spent up to now is      246.9 secs

     total energy              =   -3145.17972274 Ry
     estimated scf accuracy    <       0.05080913 Ry

     total magnetization       =     0.10 Bohr mag/cell
     absolute magnetization    =    14.14 Bohr mag/cell

     iteration # 16     ecut=    15.00 Ry     beta= 0.20
     CG style diagonalization
     ethr =  1.73E-05,  avg # of iterations =  3.0

     negative rho (up, down):  1.515E-01 1.518E-01

     total cpu time spent up to now is      261.6 secs

     total energy              =   -3145.20061410 Ry
     estimated scf accuracy    <       0.03276503 Ry

     total magnetization       =    -0.05 Bohr mag/cell
     absolute magnetization    =    13.16 Bohr mag/cell

     iteration # 17     ecut=    15.00 Ry     beta= 0.20
     CG style diagonalization
     ethr =  1.11E-05,  avg # of iterations =  3.0

     negative rho (up, down):  1.520E-01 1.522E-01

     total cpu time spent up to now is      276.3 secs

     total energy              =   -3145.21931963 Ry
     estimated scf accuracy    <       0.02137944 Ry

     total magnetization       =     0.02 Bohr mag/cell
     absolute magnetization    =    12.41 Bohr mag/cell

     iteration # 18     ecut=    15.00 Ry     beta= 0.20
     CG style diagonalization
     c_bands:  1 eigenvalues not converged
     c_bands:  1 eigenvalues not converged
     ethr =  7.27E-06,  avg # of iterations =  3.1

     negative rho (up, down):  1.527E-01 1.528E-01

     total cpu time spent up to now is      291.8 secs

     total energy              =   -3145.23503201 Ry
     estimated scf accuracy    <       0.01005496 Ry

     total magnetization       =     0.02 Bohr mag/cell
     absolute magnetization    =    11.52 Bohr mag/cell

     iteration # 19     ecut=    15.00 Ry     beta= 0.20
     CG style diagonalization
     c_bands:  1 eigenvalues not converged
     ethr =  3.42E-06,  avg # of iterations =  3.2

     negative rho (up, down):  1.527E-01 1.528E-01

     total cpu time spent up to now is      307.9 secs

     total energy              =   -3145.24290324 Ry
     estimated scf accuracy    <       0.00877062 Ry

     total magnetization       =     0.03 Bohr mag/cell
     absolute magnetization    =    10.52 Bohr mag/cell

     iteration # 20     ecut=    15.00 Ry     beta= 0.20
     CG style diagonalization
     ethr =  2.98E-06,  avg # of iterations =  3.0

     negative rho (up, down):  1.531E-01 1.532E-01

     total cpu time spent up to now is      322.7 secs

     total energy              =   -3145.24618439 Ry
     estimated scf accuracy    <       0.01105985 Ry

     total magnetization       =     0.02 Bohr mag/cell
     absolute magnetization    =    10.46 Bohr mag/cell

     iteration # 21     ecut=    15.00 Ry     beta= 0.20
     CG style diagonalization
     ethr =  2.98E-06,  avg # of iterations =  3.0

     negative rho (up, down):  1.534E-01 1.534E-01

     total cpu time spent up to now is      337.4 secs

     total energy              =   -3145.24888331 Ry
     estimated scf accuracy    <       0.01568845 Ry

     total magnetization       =     0.02 Bohr mag/cell
     absolute magnetization    =    10.07 Bohr mag/cell

     iteration # 22     ecut=    15.00 Ry     beta= 0.20
     CG style diagonalization
     ethr =  2.98E-06,  avg # of iterations =  3.0

     negative rho (up, down):  1.536E-01 1.536E-01

     total cpu time spent up to now is      352.1 secs

     total energy              =   -3145.25119258 Ry
     estimated scf accuracy    <       0.00227357 Ry

     total magnetization       =     0.03 Bohr mag/cell
     absolute magnetization    =     9.80 Bohr mag/cell

     iteration # 23     ecut=    15.00 Ry     beta= 0.20
     CG style diagonalization
     ethr =  7.73E-07,  avg # of iterations =  3.0

     negative rho (up, down):  1.536E-01 1.536E-01

     total cpu time spent up to now is      369.9 secs

     total energy              =   -3145.25191286 Ry
     estimated scf accuracy    <       0.00241025 Ry

     total magnetization       =     0.03 Bohr mag/cell
     absolute magnetization    =     9.56 Bohr mag/cell

     iteration # 24     ecut=    15.00 Ry     beta= 0.20
     CG style diagonalization
     ethr =  7.73E-07,  avg # of iterations =  3.0

     negative rho (up, down):  1.539E-01 1.538E-01

     total cpu time spent up to now is      388.2 secs

     total energy              =   -3145.25300516 Ry
     estimated scf accuracy    <       0.00139425 Ry

     total magnetization       =     0.03 Bohr mag/cell
     absolute magnetization    =     9.52 Bohr mag/cell

     iteration # 25     ecut=    15.00 Ry     beta= 0.20
     CG style diagonalization
     ethr =  4.74E-07,  avg # of iterations =  3.0

     negative rho (up, down):  1.539E-01 1.538E-01

     total cpu time spent up to now is      403.1 secs

     total energy              =   -3145.25386908 Ry
     estimated scf accuracy    <       0.00120939 Ry

     total magnetization       =     0.03 Bohr mag/cell
     absolute magnetization    =     9.26 Bohr mag/cell

     iteration # 26     ecut=    15.00 Ry     beta= 0.20
     CG style diagonalization
     ethr =  4.11E-07,  avg # of iterations =  3.0

     negative rho (up, down):  1.541E-01 1.541E-01

     total cpu time spent up to now is      417.7 secs

     total energy              =   -3145.25430329 Ry
     estimated scf accuracy    <       0.00202834 Ry

     total magnetization       =     0.04 Bohr mag/cell
     absolute magnetization    =     9.24 Bohr mag/cell

     iteration # 27     ecut=    15.00 Ry     beta= 0.20
     CG style diagonalization
     ethr =  4.11E-07,  avg # of iterations =  3.1

     negative rho (up, down):  1.539E-01 1.539E-01

     Magnetic moment per site:
     atom:    1    charge:   13.3799    magn:   -0.8969    constr:    0.0000
     atom:    2    charge:   13.3635    magn:   -0.9069    constr:    0.0000
     atom:    3    charge:   13.3639    magn:   -1.0148    constr:    0.0000
     atom:    4    charge:   13.3718    magn:    1.0255    constr:    0.0000
     atom:    5    charge:   13.3803    magn:    0.9050    constr:    0.0000
     atom:    6    charge:   13.3640    magn:    0.9120    constr:    0.0000
     atom:    7    charge:   10.4860    magn:   -0.0043    constr:    0.0000
     atom:    8    charge:   10.4884    magn:   -0.0013    constr:    0.0000
     atom:    9    charge:   10.4886    magn:    0.0014    constr:    0.0000
     atom:   10    charge:   10.4601    magn:   -0.0046    constr:    0.0000
     atom:   11    charge:   10.4602    magn:    0.0045    constr:    0.0000
     atom:   12    charge:   10.4862    magn:    0.0044    constr:    0.0000
     atom:   13    charge:    5.3674    magn:    0.0002    constr:    0.0000
     atom:   14    charge:    5.3674    magn:    0.0002    constr:    0.0000
     atom:   15    charge:    5.3674    magn:    0.0002    constr:    0.0000
     atom:   16    charge:    5.3638    magn:   -0.0138    constr:    0.0000
     atom:   17    charge:    5.3638    magn:   -0.0138    constr:    0.0000
     atom:   18    charge:    5.3638    magn:   -0.0138    constr:    0.0000
     atom:   19    charge:    5.3656    magn:    0.0136    constr:    0.0000
     atom:   20    charge:    5.3656    magn:    0.0136    constr:    0.0000
     atom:   21    charge:    5.3656    magn:    0.0136    constr:    0.0000
     atom:   22    charge:    5.3570    magn:   -0.0013    constr:    0.0000
     atom:   23    charge:    5.3570    magn:   -0.0013    constr:    0.0000
     atom:   24    charge:    5.3570    magn:   -0.0013    constr:    0.0000
     atom:   25    charge:    5.3569    magn:    0.0012    constr:    0.0000
     atom:   26    charge:    5.3569    magn:    0.0012    constr:    0.0000
     atom:   27    charge:    5.3569    magn:    0.0012    constr:    0.0000
     atom:   28    charge:    5.3693    magn:    0.0001    constr:    0.0000
     atom:   29    charge:    5.3693    magn:    0.0001    constr:    0.0000
     atom:   30    charge:    5.3693    magn:    0.0001    constr:    0.0000

     total cpu time spent up to now is      432.7 secs

     End of self-consistent calculation

 ------ SPIN UP ------------


          k = 0.0000 0.0000 0.0000 (  2529 PWs)   bands (ev):

   -86.8709 -86.7410 -86.6528 -85.7347 -85.6142 -85.4796 -48.2752 -48.2752
   -48.1471 -47.9370 -47.9370 -47.7784 -47.5463 -47.5463 -47.5151 -46.9691
   -46.9691 -46.8006 -46.8006 -46.5619 -46.5593 -46.5593 -46.1188 -46.0061
   -11.1884 -11.1884 -11.1216 -11.1215 -11.0946 -11.0946 -11.0030 -10.9876
   -10.9876 -10.9803 -10.9771 -10.9771 -10.9539 -10.9539 -10.9414 -10.9044
   -10.8772 -10.8772 -10.8687 -10.8687 -10.8656 -10.8572 -10.8572 -10.8417
   -10.8417 -10.8369 -10.8355 -10.8355 -10.8307 -10.8307  -9.6705  -9.3600
    -9.3439  -8.6834  -8.6493  -8.3172  -8.2961  -8.2961  -8.2219  -8.2219
    -8.1513  -8.1513  -7.9899  -7.9899  -7.9325  -7.9325  -7.8733  -7.8733
     0.9068   1.1115   1.1987   1.8349   1.9509   2.6037   4.9410   4.9410
     5.0287   5.5711   5.6947   5.7580   5.7581   5.7710   5.7711   6.0485
     6.1422   6.1422   6.2424   6.2425   6.3298   6.3571   6.3571   6.4118
     6.4519   6.6074   6.6074   6.8002   6.8002   7.0049   7.0049   7.5217
     7.5217   7.5455   7.6512   7.8221   7.8221   7.8554   7.8554   8.0997
     8.3114   8.5186   8.5832   8.5833   8.6322   8.6323   8.6701   8.6701
     8.7265   9.0400   9.0400   9.1421   9.3173   9.3453   9.3453   9.3686
     9.3686   9.6101   9.6102   9.8390   9.8390   9.8767  10.2950  10.2950
    10.3197  10.3474  10.3474  10.3597  10.4755  10.4755  10.5917  10.8213
    10.8213  10.8814  10.8814  10.9400  11.0235  11.9929  12.3367  12.3662
    12.4277  12.4278  12.7130  12.7130  13.7093  13.7094  14.2081  14.2081
    14.5769  14.5770  15.2187  15.3005  15.4161  15.4449  16.5114  16.5114
    16.7070  16.7071  16.7924  16.7924  16.8749  17.1972  17.4582  17.4582
    17.5516  17.5517  17.8054  17.8054  18.2062  19.8423  20.0856  20.1826
    20.9489  20.9489  21.3659  21.4330  22.1577  22.1578  22.2533  22.2533
    22.3402  22.3402  23.2577  23.5782  23.5783  23.7114  23.7115  23.9252

     occupation numbers 
     1.0000   1.0000   1.0000   1.0000   1.0000   1.0000   1.0000   1.0000
     1.0000   1.0000   1.0000   1.0000   1.0000   1.0000   1.0000   1.0000
     1.0000   1.0000   1.0000   1.0000   1.0000   1.0000   1.0000   1.0000
     1.0000   1.0000   1.0000   1.0000   1.0000   1.0000   1.0000   1.0000
     1.0000   1.0000   1.0000   1.0000   1.0000   1.0000   1.0000   1.0000
     1.0000   1.0000   1.0000   1.0000   1.0000   1.0000   1.0000   1.0000
     1.0000   1.0000   1.0000   1.0000   1.0000   1.0000   1.0000   1.0000
     1.0000   1.0000   1.0000   1.0000   1.0000   1.0000   1.0000   1.0000
     1.0000   1.0000   1.0000   1.0000   1.0000   1.0000   1.0000   1.0000
     1.0000   1.0000   1.0000   1.0000   1.0000   1.0000   1.0000   1.0000
     1.0000   1.0000   1.0000   1.0000   1.0000   1.0000   1.0000   1.0000
     1.0000   1.0000   1.0000   1.0000   1.0000   1.0000   1.0000   1.0000
     1.0000   1.0000   1.0000   1.0000   1.0000   1.0000   1.0000   1.0000
     1.0000   1.0000   1.0000   1.0000   1.0000   1.0000   1.0000   1.0000
     1.0000   1.0000   1.0000   1.0000   1.0000   1.0000   1.0000   1.0000
     1.0000   1.0000   1.0000   1.0000   1.0000   1.0000   1.0000   1.0000
     1.0000   1.0000   1.0000   1.0000   1.0000   1.0000   1.0000   1.0000
     1.0000   1.0000   1.0000   1.0000   1.0000   1.0000   1.0000   1.0000
     1.0000   1.0000   1.0000   1.0000   1.0000   0.1266   0.0000   0.0000
     0.0000   0.0000   0.0000   0.0000   0.0000   0.0000   0.0000   0.0000
     0.0000   0.0000   0.0000   0.0000   0.0000   0.0000   0.0000   0.0000
     0.0000   0.0000   0.0000   0.0000   0.0000   0.0000   0.0000   0.0000
     0.0000   0.0000   0.0000   0.0000   0.0000   0.0000   0.0000   0.0000
     0.0000   0.0000   0.0000   0.0000   0.0000   0.0000   0.0000   0.0000
     0.0000   0.0000   0.0000   0.0000   0.0000   0.0000   0.0000   0.0000

          k = 0.0000-0.5774 0.0000 (  2466 PWs)   bands (ev):

   -86.6579 -86.6030 -86.4985 -85.5726 -85.4828 -85.3401 -47.8419 -47.7478
   -47.7463 -47.6968 -47.5731 -47.0719 -47.0495 -47.0208 -46.8889 -46.7181
   -46.3637 -46.3185 -46.3006 -46.1659 -46.0269 -45.9353 -45.8782 -45.6936
   -11.1671 -11.1242 -11.0986 -11.0758 -11.0706 -11.0643 -11.0422 -11.0321
   -10.9891 -10.9842 -10.9723 -10.9675 -10.9435 -10.9273 -10.9194 -10.9149
   -10.9042 -10.8880 -10.8854 -10.8731 -10.8712 -10.8610 -10.8590 -10.8554
   -10.8482 -10.8470 -10.8434 -10.8406 -10.8295 -10.8281  -9.0953  -9.0773
    -9.0082  -8.8494  -8.8387  -8.5409  -8.4996  -8.4063  -8.3166  -8.2646
    -8.1856  -8.1593  -8.0506  -8.0267  -8.0008  -7.9598  -7.9441  -7.8446
     1.0560   1.2192   1.2582   1.5010   1.5526   1.6695   5.3680   5.5854
     5.6552   5.7416   5.7543   5.9155   6.0580   6.0754   6.1119   6.1403
     6.3136   6.3485   6.3733   6.6910   6.7138   6.7526   6.8728   6.9697
     7.1689   7.2982   7.3449   7.3595   7.4264   7.5110   7.5311   7.5717
     7.6300   7.6904   7.7539   7.9180   8.1108   8.2440   8.2673   8.3618
     8.4043   8.5112   8.5667   8.7040   8.7588   8.7963   8.8866   8.9631
     8.9885   9.0389   9.0462   9.2225   9.2620   9.3024   9.3293   9.3623
     9.6680   9.7573   9.7790  10.1546  10.1901  10.2844  10.5997  10.7475
    10.7950  10.8230  11.0120  11.0685  11.2744  11.2927  11.3838  11.4039
    11.5299  11.7921  11.8998  12.0411  12.1505  12.2542  12.4111  12.5519
    12.5994  12.6397  12.7787  13.0520  13.2676  13.5355  13.6857  14.0604
    14.4434  14.8284  15.2329  15.3323  15.3711  15.5448  15.6210  15.7543
    15.8147  15.8857  16.3218  17.0042  17.0153  17.0605  17.1751  17.2960
    17.3874  17.4190  17.4564  17.4875  20.8032  20.9260  21.1111  21.2143
    21.3374  21.7273  22.2173  22.4142  22.5291  22.6723  22.7236  22.7588
    22.8287  22.8827  23.4684  23.5346  23.5908  23.6249  23.8152  23.8934

     occupation numbers 
     1.0000   1.0000   1.0000   1.0000   1.0000   1.0000   1.0000   1.0000
     1.0000   1.0000   1.0000   1.0000   1.0000   1.0000   1.0000   1.0000
     1.0000   1.0000   1.0000   1.0000   1.0000   1.0000   1.0000   1.0000
     1.0000   1.0000   1.0000   1.0000   1.0000   1.0000   1.0000   1.0000
     1.0000   1.0000   1.0000   1.0000   1.0000   1.0000   1.0000   1.0000
     1.0000   1.0000   1.0000   1.0000   1.0000   1.0000   1.0000   1.0000
     1.0000   1.0000   1.0000   1.0000   1.0000   1.0000   1.0000   1.0000
     1.0000   1.0000   1.0000   1.0000   1.0000   1.0000   1.0000   1.0000
     1.0000   1.0000   1.0000   1.0000   1.0000   1.0000   1.0000   1.0000
     1.0000   1.0000   1.0000   1.0000   1.0000   1.0000   1.0000   1.0000
     1.0000   1.0000   1.0000   1.0000   1.0000   1.0000   1.0000   1.0000
     1.0000   1.0000   1.0000   1.0000   1.0000   1.0000   1.0000   1.0000
     1.0000   1.0000   1.0000   1.0000   1.0000   1.0000   1.0000   1.0000
     1.0000   1.0000   1.0000   1.0000   1.0000   1.0000   1.0000   1.0000
     1.0000   1.0000   1.0000   1.0000   1.0000   1.0000   1.0000   1.0000
     1.0000   1.0000   1.0000   1.0000   1.0000   1.0000   1.0000   1.0000
     1.0000   1.0000   1.0000   1.0000   1.0000   1.0000   1.0000   1.0000
     1.0000   1.0000   1.0000   1.0000   1.0000   1.0000   1.0000   1.0000
     0.9999   0.8274   0.4303   0.0501   0.0027   0.0001   0.0000   0.0000
     0.0000   0.0000   0.0000   0.0000   0.0000   0.0000   0.0000   0.0000
     0.0000   0.0000   0.0000   0.0000   0.0000   0.0000   0.0000   0.0000
     0.0000   0.0000   0.0000   0.0000   0.0000   0.0000   0.0000   0.0000
     0.0000   0.0000   0.0000   0.0000   0.0000   0.0000   0.0000   0.0000
     0.0000   0.0000   0.0000   0.0000   0.0000   0.0000   0.0000   0.0000
     0.0000   0.0000   0.0000   0.0000   0.0000   0.0000   0.0000   0.0000

 ------ SPIN DOWN ----------


          k = 0.0000 0.0000 0.0000 (  2529 PWs)   bands (ev):

   -86.8592 -86.7354 -86.6459 -85.7307 -85.6076 -85.4781 -48.2638 -48.2638
   -48.1424 -47.9321 -47.9321 -47.7732 -47.5347 -47.5347 -47.5124 -46.9656
   -46.9656 -46.7944 -46.7944 -46.5596 -46.5567 -46.5567 -46.1153 -46.0052
   -11.1885 -11.1885 -11.1216 -11.1216 -11.0946 -11.0946 -10.9997 -10.9863
   -10.9863 -10.9829 -10.9774 -10.9774 -10.9552 -10.9552 -10.9401 -10.9057
   -10.8719 -10.8719 -10.8679 -10.8678 -10.8641 -10.8614 -10.8614 -10.8388
   -10.8388 -10.8387 -10.8369 -10.8369 -10.8337 -10.8337  -9.6700  -9.3597
    -9.3442  -8.6835  -8.6489  -8.3173  -8.2953  -8.2953  -8.2220  -8.2220
    -8.1515  -8.1515  -7.9903  -7.9902  -7.9315  -7.9315  -7.8741  -7.8741
     0.9077   1.1109   1.1987   1.8349   1.9510   2.6036   4.9412   4.9412
     5.0303   5.5725   5.6950   5.7579   5.7580   5.7712   5.7713   6.0512
     6.1475   6.1475   6.2444   6.2445   6.3292   6.3561   6.3562   6.4097
     6.4527   6.6118   6.6118   6.8034   6.8035   7.0043   7.0043   7.5266
     7.5266   7.5465   7.6512   7.8223   7.8223   7.8579   7.8580   8.1027
     8.3109   8.5181   8.5845   8.5846   8.6312   8.6313   8.6729   8.6730
     8.7282   9.0416   9.0416   9.1460   9.3223   9.3455   9.3455   9.3678
     9.3679   9.6120   9.6120   9.8410   9.8410   9.8732  10.3009  10.3009
    10.3152  10.3509  10.3509  10.3562  10.4784  10.4784  10.5950  10.8234
    10.8235  10.8817  10.8818  10.9451  11.0290  11.9925  12.3350  12.3660
    12.4338  12.4338  12.7183  12.7183  13.7165  13.7165  14.2100  14.2100
    14.5809  14.5809  15.2184  15.3013  15.4159  15.4453  16.5114  16.5114
    16.7071  16.7071  16.7924  16.7924  16.8749  17.1974  17.4580  17.4580
    17.5517  17.5517  17.8055  17.8055  18.2087  19.8429  20.0876  20.1837
    20.9493  20.9493  21.3664  21.4332  22.1577  22.1577  22.2533  22.2533
    22.3408  22.3409  23.2585  23.5783  23.5785  23.7117  23.7119  23.9262

     occupation numbers 
     1.0000   1.0000   1.0000   1.0000   1.0000   1.0000   1.0000   1.0000
     1.0000   1.0000   1.0000   1.0000   1.0000   1.0000   1.0000   1.0000
     1.0000   1.0000   1.0000   1.0000   1.0000   1.0000   1.0000   1.0000
     1.0000   1.0000   1.0000   1.0000   1.0000   1.0000   1.0000   1.0000
     1.0000   1.0000   1.0000   1.0000   1.0000   1.0000   1.0000   1.0000
     1.0000   1.0000   1.0000   1.0000   1.0000   1.0000   1.0000   1.0000
     1.0000   1.0000   1.0000   1.0000   1.0000   1.0000   1.0000   1.0000
     1.0000   1.0000   1.0000   1.0000   1.0000   1.0000   1.0000   1.0000
     1.0000   1.0000   1.0000   1.0000   1.0000   1.0000   1.0000   1.0000
     1.0000   1.0000   1.0000   1.0000   1.0000   1.0000   1.0000   1.0000
     1.0000   1.0000   1.0000   1.0000   1.0000   1.0000   1.0000   1.0000
     1.0000   1.0000   1.0000   1.0000   1.0000   1.0000   1.0000   1.0000
     1.0000   1.0000   1.0000   1.0000   1.0000   1.0000   1.0000   1.0000
     1.0000   1.0000   1.0000   1.0000   1.0000   1.0000   1.0000   1.0000
     1.0000   1.0000   1.0000   1.0000   1.0000   1.0000   1.0000   1.0000
     1.0000   1.0000   1.0000   1.0000   1.0000   1.0000   1.0000   1.0000
     1.0000   1.0000   1.0000   1.0000   1.0000   1.0000   1.0000   1.0000
     1.0000   1.0000   1.0000   1.0000   1.0000   1.0000   1.0000   1.0000
     1.0000   1.0000   1.0000   1.0000   1.0000   0.1273   0.0000   0.0000
     0.0000   0.0000   0.0000   0.0000   0.0000   0.0000   0.0000   0.0000
     0.0000   0.0000   0.0000   0.0000   0.0000   0.0000   0.0000   0.0000
     0.0000   0.0000   0.0000   0.0000   0.0000   0.0000   0.0000   0.0000
     0.0000   0.0000   0.0000   0.0000   0.0000   0.0000   0.0000   0.0000
     0.0000   0.0000   0.0000   0.0000   0.0000   0.0000   0.0000   0.0000
     0.0000   0.0000   0.0000   0.0000   0.0000   0.0000   0.0000   0.0000

          k = 0.0000-0.5774 0.0000 (  2466 PWs)   bands (ev):

   -86.6438 -86.5980 -86.4933 -85.5679 -85.4776 -85.3381 -47.8316 -47.7389
   -47.7372 -47.6940 -47.5720 -47.0561 -47.0427 -47.0154 -46.8833 -46.7121
   -46.3614 -46.3140 -46.2956 -46.1636 -46.0227 -45.9334 -45.8742 -45.6902
   -11.1674 -11.1241 -11.0989 -11.0777 -11.0683 -11.0644 -11.0427 -11.0318
   -10.9881 -10.9850 -10.9726 -10.9655 -10.9449 -10.9260 -10.9195 -10.9116
   -10.9059 -10.8862 -10.8809 -10.8749 -10.8724 -10.8630 -10.8578 -10.8546
   -10.8513 -10.8474 -10.8431 -10.8376 -10.8336 -10.8298  -9.0949  -9.0758
    -9.0092  -8.8493  -8.8388  -8.5411  -8.4993  -8.4059  -8.3165  -8.2647
    -8.1854  -8.1593  -8.0498  -8.0270  -8.0014  -7.9592  -7.9443  -7.8450
     1.0565   1.2192   1.2582   1.5008   1.5531   1.6690   5.3713   5.5878
     5.6585   5.7406   5.7559   5.9144   6.0608   6.0770   6.1133   6.1423
     6.3156   6.3478   6.3732   6.6936   6.7154   6.7528   6.8745   6.9686
     7.1693   7.3000   7.3466   7.3594   7.4282   7.5120   7.5331   7.5728
     7.6291   7.6895   7.7553   7.9179   8.1114   8.2465   8.2686   8.3616
     8.4031   8.5123   8.5664   8.7051   8.7616   8.7970   8.8874   8.9649
     8.9876   9.0388   9.0429   9.2260   9.2633   9.3018   9.3335   9.3632
     9.6659   9.7578   9.7807  10.1598  10.1943  10.2873  10.6033  10.7514
    10.7975  10.8284  11.0143  11.0692  11.2770  11.2992  11.3864  11.4067
    11.5320  11.7989  11.9035  12.0460  12.1534  12.2589  12.4140  12.5539
    12.6021  12.6428  12.7805  13.0556  13.2689  13.5386  13.6878  14.0656
    14.4455  14.8292  15.2338  15.3345  15.3699  15.5449  15.6210  15.7544
    15.8153  15.8864  16.3241  17.0022  17.0173  17.0604  17.1753  17.2964
    17.3874  17.4190  17.4624  17.4813  20.8090  20.9305  21.1120  21.2127
    21.3362  21.7275  22.2179  22.4148  22.5295  22.6725  22.7227  22.7578
    22.8286  22.8857  23.4679  23.5334  23.5904  23.6277  23.8160  23.8942

     occupation numbers 
     1.0000   1.0000   1.0000   1.0000   1.0000   1.0000   1.0000   1.0000
     1.0000   1.0000   1.0000   1.0000   1.0000   1.0000   1.0000   1.0000
     1.0000   1.0000   1.0000   1.0000   1.0000   1.0000   1.0000   1.0000
     1.0000   1.0000   1.0000   1.0000   1.0000   1.0000   1.0000   1.0000
     1.0000   1.0000   1.0000   1.0000   1.0000   1.0000   1.0000   1.0000
     1.0000   1.0000   1.0000   1.0000   1.0000   1.0000   1.0000   1.0000
     1.0000   1.0000   1.0000   1.0000   1.0000   1.0000   1.0000   1.0000
     1.0000   1.0000   1.0000   1.0000   1.0000   1.0000   1.0000   1.0000
     1.0000   1.0000   1.0000   1.0000   1.0000   1.0000   1.0000   1.0000
     1.0000   1.0000   1.0000   1.0000   1.0000   1.0000   1.0000   1.0000
     1.0000   1.0000   1.0000   1.0000   1.0000   1.0000   1.0000   1.0000
     1.0000   1.0000   1.0000   1.0000   1.0000   1.0000   1.0000   1.0000
     1.0000   1.0000   1.0000   1.0000   1.0000   1.0000   1.0000   1.0000
     1.0000   1.0000   1.0000   1.0000   1.0000   1.0000   1.0000   1.0000
     1.0000   1.0000   1.0000   1.0000   1.0000   1.0000   1.0000   1.0000
     1.0000   1.0000   1.0000   1.0000   1.0000   1.0000   1.0000   1.0000
     1.0000   1.0000   1.0000   1.0000   1.0000   1.0000   1.0000   1.0000
     1.0000   1.0000   1.0000   1.0000   1.0000   1.0000   1.0000   1.0000
     0.9999   0.8088   0.4153   0.0451   0.0025   0.0000   0.0000   0.0000
     0.0000   0.0000   0.0000   0.0000   0.0000   0.0000   0.0000   0.0000
     0.0000   0.0000   0.0000   0.0000   0.0000   0.0000   0.0000   0.0000
     0.0000   0.0000   0.0000   0.0000   0.0000   0.0000   0.0000   0.0000
     0.0000   0.0000   0.0000   0.0000   0.0000   0.0000   0.0000   0.0000
     0.0000   0.0000   0.0000   0.0000   0.0000   0.0000   0.0000   0.0000
     0.0000   0.0000   0.0000   0.0000   0.0000   0.0000   0.0000   0.0000

     the Fermi energy is    11.8829 ev

!    total energy              =   -3145.25580913 Ry
     estimated scf accuracy    <       0.00037655 Ry
     smearing contrib. (-TS)   =      -0.00882948 Ry
     internal energy E=F+TS    =   -3145.24697965 Ry

     The total energy is F=E-TS. E is the sum of the following terms:
     one-electron contribution =   -1206.33502334 Ry
     hartree contribution      =     769.24747816 Ry
     xc contribution           =    -680.51030158 Ry
     ewald contribution        =   -2027.64913289 Ry

     total magnetization       =     0.03 Bohr mag/cell
     absolute magnetization    =     8.90 Bohr mag/cell

     convergence has been achieved in  27 iterations

     Writing output data file /home/aldair1809/Documentos/QE/4BFO/UHUBBARD/temp/pseudo_o_pbe_v1.2.uspp.F.UPF_ecutwfc_15.in/bifeo3-scf.save/

     init_run     :      4.37s CPU      4.45s WALL (       1 calls)
     electrons    :    417.30s CPU    427.80s WALL (       1 calls)

     Called by init_run:
     wfcinit      :      3.82s CPU      3.86s WALL (       1 calls)
     wfcinit:atom :      0.01s CPU      0.01s WALL (       4 calls)
     wfcinit:wfcr :      3.77s CPU      3.80s WALL (       4 calls)
     potinit      :      0.09s CPU      0.09s WALL (       1 calls)
     hinit0       :      0.29s CPU      0.29s WALL (       1 calls)

     Called by electrons:
     c_bands      :    382.50s CPU    392.20s WALL (      27 calls)
     sum_band     :     29.78s CPU     30.53s WALL (      27 calls)
     v_of_rho     :      0.50s CPU      0.52s WALL (      28 calls)
     v_h          :      0.01s CPU      0.01s WALL (      28 calls)
     v_xc         :      0.48s CPU      0.51s WALL (      28 calls)
     newd         :      4.53s CPU      4.59s WALL (      28 calls)
     mix_rho      :      0.13s CPU      0.13s WALL (      27 calls)

     Called by c_bands:
     init_us_2    :      0.62s CPU      0.64s WALL (     220 calls)
     ccgdiagg     :    287.52s CPU    295.79s WALL (     108 calls)
     wfcrot       :     98.17s CPU     99.62s WALL (     108 calls)

     Called by sum_band:
     sum_band:wei :      0.02s CPU      0.02s WALL (      27 calls)
     sum_band:loo :     24.27s CPU     24.99s WALL (      27 calls)
     sum_band:buf :      0.10s CPU      0.11s WALL (     108 calls)
     sum_band:ini :      0.31s CPU      0.31s WALL (     108 calls)
     sum_band:cal :     19.33s CPU     19.46s WALL (     108 calls)
     sum_band:bec :      0.56s CPU      0.57s WALL (     108 calls)
     addusdens    :      5.25s CPU      5.27s WALL (      27 calls)
     addusd:skk   :      0.02s CPU      0.02s WALL (     108 calls)
     addusd:dgemm :      2.35s CPU      2.37s WALL (     216 calls)
     addusd:qvan2 :      2.80s CPU      2.81s WALL (     216 calls)

     Called by *cgdiagg:
     h_psi        :    162.93s CPU    169.70s WALL (   45582 calls)
     s_psi        :    109.00s CPU    110.07s WALL (   91056 calls)

     Called by h_psi:
     h_psi:calbec :     66.61s CPU     70.47s WALL (   45582 calls)
     vloc_psi     :     29.67s CPU     32.09s WALL (   45582 calls)
     add_vuspsi   :     65.79s CPU     66.35s WALL (   45582 calls)
     hs_1psi      :    159.63s CPU    165.62s WALL (   45474 calls)
     s_1psi       :     90.37s CPU     92.24s WALL (   45474 calls)

     General routines
     calbec       :    130.84s CPU    136.48s WALL (   91164 calls)
     fft          :      0.16s CPU      0.18s WALL (     586 calls)
     ffts         :      0.02s CPU      0.02s WALL (      54 calls)
     fftw         :     29.51s CPU     32.19s WALL (  155780 calls)

     Parallel routines
     fft_scatt_xy :      3.56s CPU      3.87s WALL (  156420 calls)
     fft_scatt_yz :      8.41s CPU      9.28s WALL (  156420 calls)

     PWSCF        :   7m 2.14s CPU   7m12.80s WALL


   This run was terminated on:  21:13:39  28Sep2024            

=------------------------------------------------------------------------------=
   JOB DONE.
=------------------------------------------------------------------------------=
