
     Program PWSCF v.6.7MaX starts on 28Sep2024 at 21:49:31 

     This program is part of the open-source Quantum ESPRESSO suite
     for quantum simulation of materials; please cite
         "P. Giannozzi et al., J. Phys.:Condens. Matter 21 395502 (2009);
         "P. Giannozzi et al., J. Phys.:Condens. Matter 29 465901 (2017);
          URL http://www.quantum-espresso.org", 
     in publications or presentations arising from this work. More details at
     http://www.quantum-espresso.org/quote

     Parallel version (MPI), running on     4 processors

     MPI processes distributed on     1 nodes
     R & G space division:  proc/nbgrp/npool/nimage =       4
     Waiting for input...
     Reading input from standard input

     Current dimensions of program PWSCF are:
     Max number of different atomic species (ntypx) = 10
     Max number of k-points (npk) =  40000
     Max angular momentum in pseudopotentials (lmaxx) =  3
     Message from routine iosys:
     wrong startingpot: use default (1)

     Subspace diagonalization in iterative solution of the eigenvalue problem:
     one sub-group per band group will be used
     scalapack distributed-memory algorithm (size of sub-group:  2*  2 procs)

     Message from routine setup:
     using ibrav=0 with symmetry is DISCOURAGED, use correct ibrav instead

     Parallelization info
     --------------------
     sticks:   dense  smooth     PW     G-vecs:    dense   smooth      PW
     Min         149     149     44                 7638     7638    1187
     Max         160     160     49                 7639     7639    1188
     Sum         613     613    187                30555    30555    4751



     bravais-lattice index     =            0
     lattice parameter (alat)  =      10.5468  a.u.
     unit-cell volume          =    2535.5110 (a.u.)^3
     number of atoms/cell      =           30
     number of atomic types    =            4
     number of electrons       =       294.00
     number of Kohn-Sham states=          200
     kinetic-energy cutoff     =      20.0000  Ry
     charge density cutoff     =      80.0000  Ry
     scf convergence threshold =      1.0E-03
     mixing beta               =       0.2000
     number of iterations used =            8  plain     mixing
     Exchange-correlation= SLA  PW   PSX  PSC
                           (   1   4  10   8   0   0   0)

     celldm(1)=  10.546849  celldm(2)=   0.000000  celldm(3)=   0.000000
     celldm(4)=   0.000000  celldm(5)=   0.000000  celldm(6)=   0.000000

     crystal axes: (cart. coord. in units of alat)
               a(1) = (   1.000000  -0.000000  -0.000000 )  
               a(2) = (  -0.500000   0.866025  -0.000000 )  
               a(3) = (   0.000000  -0.000000   2.495552 )  

     reciprocal axes: (cart. coord. in units 2 pi/alat)
               b(1) = (  1.000000  0.577350  0.000000 )  
               b(2) = (  0.000000  1.154701  0.000000 )  
               b(3) = (  0.000000  0.000000  0.400713 )  


     PseudoPot. # 1 for O  read from file:
     /home/aldair1809/Programas/QE/q-e-qe-7.3/pseudo/o_pbesol_v1.2.uspp.F.UPF
     MD5 check sum: 501638753501ef6325af9037351f7734
     Pseudo is Ultrasoft + core correction, Zval =  6.0
     Generated by new atomic code, or converted to UPF format
     Using radial grid of  737 points,  5 beta functions with: 
                l(1) =   0
                l(2) =   0
                l(3) =   1
                l(4) =   1
                l(5) =   2
     Q(r) pseudized with  8 coefficients,  rinner =    0.900   0.900   0.900
                                                       0.900   0.900

     PseudoPot. # 2 for Bi read from file:
     /home/aldair1809/Programas/QE/q-e-qe-7.3/pseudo/bi_pbesol_v1.uspp.F.UPF
     MD5 check sum: 588b87649a5c12ad5a0392deab1dcc00
     Pseudo is Ultrasoft + core correction, Zval = 15.0
     Generated by new atomic code, or converted to UPF format
     Using radial grid of  899 points,  6 beta functions with: 
                l(1) =   0
                l(2) =   0
                l(3) =   1
                l(4) =   1
                l(5) =   2
                l(6) =   2
     Q(r) pseudized with  6 coefficients,  rinner =    1.000   1.000   1.000
                                                       1.000   1.000

     PseudoPot. # 3 for Fe read from file:
     /home/aldair1809/Programas/QE/q-e-qe-7.3/pseudo/fe_pbesol_v1.5.uspp.F.UPF
     MD5 check sum: a3f38e9a1a818e424be8f97771a26c64
     Pseudo is Ultrasoft + core correction, Zval = 16.0
     Generated by new atomic code, or converted to UPF format
     Using radial grid of  861 points,  6 beta functions with: 
                l(1) =   0
                l(2) =   0
                l(3) =   1
                l(4) =   1
                l(5) =   2
                l(6) =   2
     Q(r) pseudized with  8 coefficients,  rinner =    1.000   1.000   1.000
                                                       1.000   1.000

     PseudoPot. # 4 for Fe read from file:
     /home/aldair1809/Programas/QE/q-e-qe-7.3/pseudo/fe_pbesol_v1.5.uspp.F.UPF
     MD5 check sum: a3f38e9a1a818e424be8f97771a26c64
     Pseudo is Ultrasoft + core correction, Zval = 16.0
     Generated by new atomic code, or converted to UPF format
     Using radial grid of  861 points,  6 beta functions with: 
                l(1) =   0
                l(2) =   0
                l(3) =   1
                l(4) =   1
                l(5) =   2
                l(6) =   2
     Q(r) pseudized with  8 coefficients,  rinner =    1.000   1.000   1.000
                                                       1.000   1.000

     atomic species   valence    mass     pseudopotential
        O              6.00    15.99940     O ( 1.00)
        Bi            15.00   208.98040     Bi( 1.00)
        Fe1           16.00    55.84500     Fe( 1.00)
        Fe2           16.00    55.84500     Fe( 1.00)

     Starting magnetic structure 
     atomic species   magnetization
        O            0.000
        Bi           0.000
        Fe1         -0.800
        Fe2          0.800

      3 Sym. Ops. (no inversion) found


                                    s                        frac. trans.

      isym =  1     identity                                     

 cryst.   s( 1) = (     1          0          0      )
                  (     0          1          0      )
                  (     0          0          1      )

 cart.    s( 1) = (  1.0000000 -0.0000000  0.0000000 )
                  (  0.0000000  1.0000000  0.0000000 )
                  (  0.0000000  0.0000000  1.0000000 )


      isym =  2     120 deg rotation - cryst. axis [0,0,1]       

 cryst.   s( 2) = (     0          1          0      )
                  (    -1         -1          0      )
                  (     0          0          1      )

 cart.    s( 2) = ( -0.5000000 -0.8660254  0.0000000 )
                  (  0.8660254 -0.5000000  0.0000000 )
                  (  0.0000000  0.0000000  1.0000000 )


      isym =  3     120 deg rotation - cryst. axis [0,0,-1]      

 cryst.   s( 3) = (    -1         -1          0      )
                  (     1          0          0      )
                  (     0          0          1      )

 cart.    s( 3) = ( -0.5000000  0.8660254  0.0000000 )
                  ( -0.8660254 -0.5000000  0.0000000 )
                  (  0.0000000  0.0000000  1.0000000 )


   Cartesian axes

     site n.     atom                  positions (alat units)
         1           Fe1 tau(   1) = (   0.0000000   0.0000000   1.9384582  )
         2           Fe1 tau(   2) = (  -0.0000005   0.5773506   2.3615556  )
         3           Fe1 tau(   3) = (   0.5000005   0.2886748   1.5200787  )
         4           Fe2 tau(   4) = (   0.5000005   0.2886748   0.2722626  )
         5           Fe2 tau(   5) = (   0.0000000   0.0000000   0.6907071  )
         6           Fe2 tau(   6) = (  -0.0000005   0.5773506   1.1137452  )
         7           Bi  tau(   7) = (   0.5000005   0.2886748   2.0843143  )
         8           Bi  tau(   8) = (  -0.0000005   0.5773506   1.6713980  )
         9           Bi  tau(   9) = (  -0.0000005   0.5773506   0.4235448  )
        10           Bi  tau(  10) = (   0.0000000   0.0000000   0.0002821  )
        11           Bi  tau(  11) = (   0.0000000   0.0000000   1.2481025  )
        12           Bi  tau(  12) = (   0.5000005   0.2886748   0.8364865  )
        13           O   tau(  13) = (  -0.3105904   0.6551932   2.2011299  )
        14           O   tau(  14) = (   0.0878817   0.2694488   2.2011299  )
        15           O   tau(  15) = (   0.2227102   0.8074080   2.2011299  )
        16           O   tau(  16) = (   0.4087504   0.5589755   1.7846473  )
        17           O   tau(  17) = (   0.3115373   0.0745013   1.7846473  )
        18           O   tau(  18) = (   0.7797108   0.2325494   1.7846473  )
        19           O   tau(  19) = (   0.6884743   0.0745026   0.5368244  )
        20           O   tau(  20) = (   0.5912412   0.5589858   0.5368244  )
        21           O   tau(  21) = (   0.2202830   0.2325379   0.5368244  )
        22           O   tau(  22) = (  -0.0823010   0.8482993   0.1166193  )
        23           O   tau(  23) = (  -0.1934983   0.3706010   0.1166193  )
        24           O   tau(  24) = (   0.2757993   0.5131505   0.1166193  )
        25           O   tau(  25) = (   0.1934855   0.3705936   1.3644430  )
        26           O   tau(  26) = (   0.0823138   0.8482919   1.3644430  )
        27           O   tau(  27) = (  -0.2757993   0.5131653   1.3644430  )
        28           O   tau(  28) = (  -0.0878870   0.2694458   0.9533686  )
        29           O   tau(  29) = (   0.3105971   0.6551893   0.9533686  )
        30           O   tau(  30) = (  -0.2227086   0.8074149   0.9533686  )

   Crystallographic axes

     site n.     atom                  positions (cryst. coord.)
         1           Fe1 tau(   1) = (  0.0000000  0.0000000  0.7767652  )
         2           Fe1 tau(   2) = (  0.3333330  0.6666670  0.9463058  )
         3           Fe1 tau(   3) = (  0.6666670  0.3333330  0.6091152  )
         4           Fe2 tau(   4) = (  0.6666670  0.3333330  0.1090991  )
         5           Fe2 tau(   5) = (  0.0000000  0.0000000  0.2767753  )
         6           Fe2 tau(   6) = (  0.3333330  0.6666670  0.4462921  )
         7           Bi  tau(   7) = (  0.6666670  0.3333330  0.8352117  )
         8           Bi  tau(   8) = (  0.3333330  0.6666670  0.6697508  )
         9           Bi  tau(   9) = (  0.3333330  0.6666670  0.1697199  )
        10           Bi  tau(  10) = (  0.0000000  0.0000000  0.0001130  )
        11           Bi  tau(  11) = (  0.0000000  0.0000000  0.5001308  )
        12           Bi  tau(  12) = (  0.6666670  0.3333330  0.3351910  )
        13           O   tau(  13) = (  0.0676856  0.7565520  0.8820212  )
        14           O   tau(  14) = (  0.2434480  0.3111326  0.8820212  )
        15           O   tau(  15) = (  0.6888674  0.9323144  0.8820212  )
        16           O   tau(  16) = (  0.7314750  0.6454493  0.7151312  )
        17           O   tau(  17) = (  0.3545507  0.0860267  0.7151312  )
        18           O   tau(  18) = (  0.9139733  0.2685250  0.7151312  )
        19           O   tau(  19) = (  0.7314884  0.0860282  0.2151125  )
        20           O   tau(  20) = (  0.9139718  0.6454612  0.2151125  )
        21           O   tau(  21) = (  0.3545388  0.2685116  0.2151125  )
        22           O   tau(  22) = (  0.4074649  0.9795317  0.0467309  )
        23           O   tau(  23) = (  0.0204683  0.4279331  0.0467309  )
        24           O   tau(  24) = (  0.5720669  0.5925351  0.0467309  )
        25           O   tau(  25) = (  0.4074478  0.4279246  0.5467499  )
        26           O   tau(  26) = (  0.5720754  0.9795232  0.5467499  )
        27           O   tau(  27) = (  0.0204768  0.5925522  0.5467499  )
        28           O   tau(  28) = (  0.0676775  0.3111292  0.3820271  )
        29           O   tau(  29) = (  0.6888708  0.7565474  0.3820271  )
        30           O   tau(  30) = (  0.2434526  0.9323225  0.3820271  )

     number of k points=     2  Gaussian smearing, width (Ry)=  0.0100
                       cart. coord. in units 2pi/alat
        k(    1) = (   0.0000000   0.0000000   0.0000000), wk =   0.2500000
        k(    2) = (   0.0000000  -0.5773503   0.0000000), wk =   0.7500000

                       cryst. coord.
        k(    1) = (   0.0000000   0.0000000   0.0000000), wk =   0.2500000
        k(    2) = (   0.0000000  -0.5000000   0.0000000), wk =   0.7500000

     Dense  grid:    30555 G-vectors     FFT dimensions: (  32,  32,  75)

     Dynamical RAM for                 wfc:       2.92 MB

     Dynamical RAM for     wfc (w. buffer):      14.60 MB

     Dynamical RAM for           str. fact:       0.47 MB

     Dynamical RAM for           local pot:       0.00 MB

     Dynamical RAM for          nlocal pot:       6.57 MB

     Dynamical RAM for                qrad:       2.88 MB

     Dynamical RAM for          rho,v,vnew:       1.59 MB

     Dynamical RAM for               rhoin:       0.53 MB

     Dynamical RAM for            rho*nmix:       3.73 MB

     Dynamical RAM for           G-vectors:       0.50 MB

     Dynamical RAM for          h,s,v(r/c):       0.46 MB

     Dynamical RAM for          <psi|beta>:       1.37 MB

     Dynamical RAM for      wfcinit/wfcrot:       6.91 MB

     Dynamical RAM for           addusdens:      23.89 MB

     Estimated static dynamical RAM per process >      32.34 MB

     Estimated max dynamical RAM per process >      56.23 MB

     Estimated total dynamical RAM >     224.91 MB

     Check: negative core charge=   -0.001359
     Generating pointlists ...
     new r_m :   0.1458 (alat units)  1.5374 (a.u.) for type    1
     new r_m :   0.1687 (alat units)  1.7788 (a.u.) for type    2
     new r_m :   0.1458 (alat units)  1.5374 (a.u.) for type    3
     new r_m :   0.1458 (alat units)  1.5374 (a.u.) for type    4

     Initial potential from superposition of free atoms

     starting charge  281.99971, renormalised to  294.00000

     negative rho (up, down):  1.312E-01 1.314E-01
     Starting wfcs are  204 randomized atomic wfcs

     total cpu time spent up to now is        6.9 secs

     Self-consistent Calculation

     iteration #  1     ecut=    20.00 Ry     beta= 0.20
     CG style diagonalization
     ethr =  1.00E-02,  avg # of iterations =  2.7

     negative rho (up, down):  1.253E-01 1.256E-01

     total cpu time spent up to now is       29.6 secs

     total energy              =   -3174.91012160 Ry
     estimated scf accuracy    <      25.57166390 Ry

     total magnetization       =    -0.00 Bohr mag/cell
     absolute magnetization    =    30.64 Bohr mag/cell

     iteration #  2     ecut=    20.00 Ry     beta= 0.20
     CG style diagonalization
     ethr =  8.70E-03,  avg # of iterations =  3.0

     negative rho (up, down):  1.184E-01 1.187E-01

     total cpu time spent up to now is       52.0 secs

     total energy              =   -3176.84948423 Ry
     estimated scf accuracy    <      11.98357259 Ry

     total magnetization       =     0.00 Bohr mag/cell
     absolute magnetization    =    30.18 Bohr mag/cell

     iteration #  3     ecut=    20.00 Ry     beta= 0.20
     CG style diagonalization
     ethr =  4.08E-03,  avg # of iterations =  3.4

     negative rho (up, down):  1.172E-01 1.175E-01

     total cpu time spent up to now is       77.5 secs

     total energy              =   -3183.64344545 Ry
     estimated scf accuracy    <      22.55928820 Ry

     total magnetization       =     0.29 Bohr mag/cell
     absolute magnetization    =    19.14 Bohr mag/cell

     iteration #  4     ecut=    20.00 Ry     beta= 0.20
     CG style diagonalization
     ethr =  4.08E-03,  avg # of iterations =  3.0

     negative rho (up, down):  1.180E-01 1.182E-01

     total cpu time spent up to now is       99.7 secs

     total energy              =   -3183.19711029 Ry
     estimated scf accuracy    <      93.28026461 Ry

     total magnetization       =    -0.19 Bohr mag/cell
     absolute magnetization    =     6.61 Bohr mag/cell

     iteration #  5     ecut=    20.00 Ry     beta= 0.20
     CG style diagonalization
     ethr =  4.08E-03,  avg # of iterations =  3.0

     negative rho (up, down):  1.186E-01 1.188E-01

     total cpu time spent up to now is      121.8 secs

     total energy              =   -3181.00300671 Ry
     estimated scf accuracy    <      68.41560204 Ry

     total magnetization       =    -0.29 Bohr mag/cell
     absolute magnetization    =     9.30 Bohr mag/cell

     iteration #  6     ecut=    20.00 Ry     beta= 0.20
     CG style diagonalization
     ethr =  4.08E-03,  avg # of iterations =  3.0

     negative rho (up, down):  1.192E-01 1.193E-01

     total cpu time spent up to now is      144.3 secs

     total energy              =   -3180.01590394 Ry
     estimated scf accuracy    <      50.93395705 Ry

     total magnetization       =    -1.94 Bohr mag/cell
     absolute magnetization    =    13.65 Bohr mag/cell

     iteration #  7     ecut=    20.00 Ry     beta= 0.20
     CG style diagonalization
     ethr =  4.08E-03,  avg # of iterations =  3.0

     negative rho (up, down):  1.193E-01 1.194E-01

     total cpu time spent up to now is      166.4 secs

     total energy              =   -3180.41609011 Ry
     estimated scf accuracy    <      15.49223268 Ry

     total magnetization       =    -0.73 Bohr mag/cell
     absolute magnetization    =    19.34 Bohr mag/cell

     iteration #  8     ecut=    20.00 Ry     beta= 0.20
     CG style diagonalization
     ethr =  4.08E-03,  avg # of iterations =  3.0

     negative rho (up, down):  1.194E-01 1.195E-01

     total cpu time spent up to now is      188.6 secs

     total energy              =   -3180.30109000 Ry
     estimated scf accuracy    <      12.68602635 Ry

     total magnetization       =    -0.93 Bohr mag/cell
     absolute magnetization    =    20.37 Bohr mag/cell

     iteration #  9     ecut=    20.00 Ry     beta= 0.20
     CG style diagonalization
     ethr =  4.08E-03,  avg # of iterations =  3.0

     negative rho (up, down):  1.196E-01 1.197E-01

     total cpu time spent up to now is      210.7 secs

     total energy              =   -3180.19468298 Ry
     estimated scf accuracy    <      14.29484241 Ry

     total magnetization       =    -1.91 Bohr mag/cell
     absolute magnetization    =    19.68 Bohr mag/cell

     iteration # 10     ecut=    20.00 Ry     beta= 0.20
     CG style diagonalization
     ethr =  4.08E-03,  avg # of iterations =  3.0

     negative rho (up, down):  1.197E-01 1.198E-01

     total cpu time spent up to now is      233.2 secs

     total energy              =   -3180.22140575 Ry
     estimated scf accuracy    <       6.43823320 Ry

     total magnetization       =    -1.15 Bohr mag/cell
     absolute magnetization    =    21.57 Bohr mag/cell

     iteration # 11     ecut=    20.00 Ry     beta= 0.20
     CG style diagonalization
     ethr =  2.19E-03,  avg # of iterations =  3.0

     negative rho (up, down):  1.205E-01 1.206E-01

     total cpu time spent up to now is      255.5 secs

     total energy              =   -3179.69206931 Ry
     estimated scf accuracy    <       5.15301507 Ry

     total magnetization       =    -0.40 Bohr mag/cell
     absolute magnetization    =    22.20 Bohr mag/cell

     iteration # 12     ecut=    20.00 Ry     beta= 0.20
     CG style diagonalization
     ethr =  1.75E-03,  avg # of iterations =  3.0

     negative rho (up, down):  1.207E-01 1.208E-01

     total cpu time spent up to now is      277.7 secs

     total energy              =   -3180.06065209 Ry
     estimated scf accuracy    <       0.17627107 Ry

     total magnetization       =     0.01 Bohr mag/cell
     absolute magnetization    =    27.58 Bohr mag/cell

     iteration # 13     ecut=    20.00 Ry     beta= 0.20
     CG style diagonalization
     c_bands:  1 eigenvalues not converged
     ethr =  6.00E-05,  avg # of iterations =  3.3

     negative rho (up, down):  1.207E-01 1.208E-01

     total cpu time spent up to now is      302.8 secs

     total energy              =   -3180.06315899 Ry
     estimated scf accuracy    <       0.11002888 Ry

     total magnetization       =    -0.01 Bohr mag/cell
     absolute magnetization    =    27.55 Bohr mag/cell

     iteration # 14     ecut=    20.00 Ry     beta= 0.20
     CG style diagonalization
     ethr =  3.74E-05,  avg # of iterations =  3.0

     negative rho (up, down):  1.207E-01 1.208E-01

     total cpu time spent up to now is      325.2 secs

     total energy              =   -3180.07046820 Ry
     estimated scf accuracy    <       0.06299199 Ry

     total magnetization       =     0.02 Bohr mag/cell
     absolute magnetization    =    27.36 Bohr mag/cell

     iteration # 15     ecut=    20.00 Ry     beta= 0.20
     CG style diagonalization
     c_bands:  1 eigenvalues not converged
     c_bands:  1 eigenvalues not converged
     ethr =  2.14E-05,  avg # of iterations =  3.1

     negative rho (up, down):  1.206E-01 1.207E-01

     total cpu time spent up to now is      348.7 secs

     total energy              =   -3180.08199034 Ry
     estimated scf accuracy    <       0.02763265 Ry

     total magnetization       =    -0.02 Bohr mag/cell
     absolute magnetization    =    27.21 Bohr mag/cell

     iteration # 16     ecut=    20.00 Ry     beta= 0.20
     CG style diagonalization
     c_bands:  1 eigenvalues not converged
     c_bands:  1 eigenvalues not converged
     ethr =  9.40E-06,  avg # of iterations =  3.1

     negative rho (up, down):  1.205E-01 1.206E-01

     total cpu time spent up to now is      371.9 secs

     total energy              =   -3180.08731743 Ry
     estimated scf accuracy    <       0.00921161 Ry

     total magnetization       =    -0.00 Bohr mag/cell
     absolute magnetization    =    27.25 Bohr mag/cell

     iteration # 17     ecut=    20.00 Ry     beta= 0.20
     CG style diagonalization
     c_bands:  1 eigenvalues not converged
     c_bands:  1 eigenvalues not converged
     c_bands:  3 eigenvalues not converged
     ethr =  3.13E-06,  avg # of iterations =  3.3

     negative rho (up, down):  1.204E-01 1.204E-01

     total cpu time spent up to now is      396.2 secs

     total energy              =   -3180.09049827 Ry
     estimated scf accuracy    <       0.00664148 Ry

     total magnetization       =    -0.01 Bohr mag/cell
     absolute magnetization    =    27.36 Bohr mag/cell

     iteration # 18     ecut=    20.00 Ry     beta= 0.20
     CG style diagonalization
     c_bands:  1 eigenvalues not converged
     c_bands:  1 eigenvalues not converged
     ethr =  2.26E-06,  avg # of iterations =  3.1

     negative rho (up, down):  1.202E-01 1.202E-01

     total cpu time spent up to now is      419.5 secs

     total energy              =   -3180.09403886 Ry
     estimated scf accuracy    <       0.00432460 Ry

     total magnetization       =    -0.00 Bohr mag/cell
     absolute magnetization    =    27.43 Bohr mag/cell

     iteration # 19     ecut=    20.00 Ry     beta= 0.20
     CG style diagonalization
     c_bands:  1 eigenvalues not converged
     ethr =  1.47E-06,  avg # of iterations =  3.1

     negative rho (up, down):  1.202E-01 1.201E-01

     total cpu time spent up to now is      442.4 secs

     total energy              =   -3180.09520321 Ry
     estimated scf accuracy    <       0.00235270 Ry

     total magnetization       =    -0.00 Bohr mag/cell
     absolute magnetization    =    27.53 Bohr mag/cell

     iteration # 20     ecut=    20.00 Ry     beta= 0.20
     CG style diagonalization
     c_bands:  1 eigenvalues not converged
     ethr =  8.00E-07,  avg # of iterations =  3.0

     negative rho (up, down):  1.202E-01 1.201E-01

     Magnetic moment per site:
     atom:    1    charge:   13.1929    magn:   -3.6692    constr:    0.0000
     atom:    2    charge:   13.2040    magn:   -3.5729    constr:    0.0000
     atom:    3    charge:   13.1946    magn:   -3.5649    constr:    0.0000
     atom:    4    charge:   13.2010    magn:    3.5663    constr:    0.0000
     atom:    5    charge:   13.1999    magn:    3.6620    constr:    0.0000
     atom:    6    charge:   13.1859    magn:    3.5739    constr:    0.0000
     atom:    7    charge:   10.4666    magn:   -0.0199    constr:    0.0000
     atom:    8    charge:   10.4644    magn:   -0.0156    constr:    0.0000
     atom:    9    charge:   10.4638    magn:    0.0155    constr:    0.0000
     atom:   10    charge:   10.4736    magn:   -0.0053    constr:    0.0000
     atom:   11    charge:   10.4642    magn:    0.0053    constr:    0.0000
     atom:   12    charge:   10.4645    magn:    0.0200    constr:    0.0000
     atom:   13    charge:    5.3955    magn:   -0.2270    constr:    0.0000
     atom:   14    charge:    5.3955    magn:   -0.2270    constr:    0.0000
     atom:   15    charge:    5.3955    magn:   -0.2270    constr:    0.0000
     atom:   16    charge:    5.3900    magn:   -0.2407    constr:    0.0000
     atom:   17    charge:    5.3900    magn:   -0.2407    constr:    0.0000
     atom:   18    charge:    5.3900    magn:   -0.2407    constr:    0.0000
     atom:   19    charge:    5.3924    magn:    0.2409    constr:    0.0000
     atom:   20    charge:    5.3924    magn:    0.2409    constr:    0.0000
     atom:   21    charge:    5.3924    magn:    0.2409    constr:    0.0000
     atom:   22    charge:    5.3834    magn:    0.0750    constr:    0.0000
     atom:   23    charge:    5.3834    magn:    0.0750    constr:    0.0000
     atom:   24    charge:    5.3834    magn:    0.0750    constr:    0.0000
     atom:   25    charge:    5.3844    magn:   -0.0750    constr:    0.0000
     atom:   26    charge:    5.3844    magn:   -0.0750    constr:    0.0000
     atom:   27    charge:    5.3844    magn:   -0.0750    constr:    0.0000
     atom:   28    charge:    5.3967    magn:    0.2269    constr:    0.0000
     atom:   29    charge:    5.3967    magn:    0.2269    constr:    0.0000
     atom:   30    charge:    5.3967    magn:    0.2269    constr:    0.0000

     total cpu time spent up to now is      464.7 secs

     End of self-consistent calculation

 ------ SPIN UP ------------


          k = 0.0000 0.0000 0.0000 (  3823 PWs)   bands (ev):

   -81.3160 -81.1036 -81.0829 -76.5073 -76.4333 -76.4051 -46.4371 -46.4101
   -46.4101 -46.2565 -46.2304 -46.2304 -46.1756 -46.1359 -46.1359 -41.8256
   -41.7661 -41.7661 -41.7299 -41.7299 -41.7155 -41.6886 -41.6525 -41.6525
   -11.2444 -11.2444 -11.2026 -11.2026 -11.1825 -11.1825 -11.1524 -11.1188
   -11.1178 -11.1178 -11.1103 -11.1103 -11.0971 -11.0971 -11.0801 -11.0614
   -11.0466 -11.0466 -11.0389 -11.0389 -11.0329 -11.0310 -11.0310 -11.0192
   -11.0171 -11.0171 -10.9913 -10.9913 -10.9747 -10.9747  -8.4432  -8.0699
    -7.9658  -7.2433  -7.1772  -6.8242  -6.8241  -6.6838  -6.6838  -6.6721
    -6.5857  -6.5857  -6.4779  -6.4778  -6.3120  -6.3120  -6.1350  -6.1349
     0.6249   0.8581   0.9327   1.6852   1.8212   2.5581   4.7796   4.7796
     4.9522   5.2930   5.2931   5.3798   5.4312   5.4312   5.5760   5.6916
     5.6917   5.7994   5.8870   5.8870   6.0477   6.0928   6.0928   6.2496
     6.2497   6.2645   6.3611   6.5853   6.5853   6.8421   6.8421   7.0016
     7.1643   7.5050   7.5470   7.5470   7.7752   7.7753   7.8382   7.8382
     7.9488   8.0641   8.1577   8.1578   8.3663   8.3663   8.3683   8.4999
     8.5079   8.5079   8.6293   8.6293   8.7859   8.7859   9.0995   9.0996
     9.2090   9.2294   9.2294   9.2802   9.2802   9.6943   9.6943   9.8851
     9.8851  10.0162  10.1432  10.3133  10.3898  10.4442  10.4443  10.5253
    10.6180  11.0860  11.0861  11.6698  11.6698  11.7812  11.7812  11.8523
    11.9689  11.9689  11.9892  12.0279  12.6762  12.6763  13.2860  13.2861
    13.8647  13.8648  14.8821  14.9787  15.1030  15.1372  16.1627  16.1627
    16.2965  16.2966  16.3349  16.3350  16.6937  16.7536  16.9455  16.9455
    17.0287  17.0287  17.5090  17.5090  18.0492  19.4182  19.5883  19.7370
    20.4606  20.4606  20.7654  20.8373  21.4797  21.4797  21.5896  21.5898
    21.8515  21.8515  22.6730  22.8154  22.8156  22.8925  22.9692  22.9741

     occupation numbers 
     1.0000   1.0000   1.0000   1.0000   1.0000   1.0000   1.0000   1.0000
     1.0000   1.0000   1.0000   1.0000   1.0000   1.0000   1.0000   1.0000
     1.0000   1.0000   1.0000   1.0000   1.0000   1.0000   1.0000   1.0000
     1.0000   1.0000   1.0000   1.0000   1.0000   1.0000   1.0000   1.0000
     1.0000   1.0000   1.0000   1.0000   1.0000   1.0000   1.0000   1.0000
     1.0000   1.0000   1.0000   1.0000   1.0000   1.0000   1.0000   1.0000
     1.0000   1.0000   1.0000   1.0000   1.0000   1.0000   1.0000   1.0000
     1.0000   1.0000   1.0000   1.0000   1.0000   1.0000   1.0000   1.0000
     1.0000   1.0000   1.0000   1.0000   1.0000   1.0000   1.0000   1.0000
     1.0000   1.0000   1.0000   1.0000   1.0000   1.0000   1.0000   1.0000
     1.0000   1.0000   1.0000   1.0000   1.0000   1.0000   1.0000   1.0000
     1.0000   1.0000   1.0000   1.0000   1.0000   1.0000   1.0000   1.0000
     1.0000   1.0000   1.0000   1.0000   1.0000   1.0000   1.0000   1.0000
     1.0000   1.0000   1.0000   1.0000   1.0000   1.0000   1.0000   1.0000
     1.0000   1.0000   1.0000   1.0000   1.0000   1.0000   1.0000   1.0000
     1.0000   1.0000   1.0000   1.0000   1.0000   1.0000   1.0000   1.0000
     1.0000   1.0000   1.0000   1.0000   1.0000   1.0000   1.0000   1.0000
     1.0000   1.0000   1.0000   1.0000   1.0000   1.0000   1.0000   1.0000
     1.0000   0.9972   0.9972   0.0005   0.0005   0.0000   0.0000   0.0000
     0.0000   0.0000   0.0000   0.0000   0.0000   0.0000   0.0000   0.0000
     0.0000   0.0000   0.0000   0.0000   0.0000   0.0000   0.0000   0.0000
     0.0000   0.0000   0.0000   0.0000   0.0000   0.0000   0.0000   0.0000
     0.0000   0.0000   0.0000   0.0000   0.0000   0.0000   0.0000   0.0000
     0.0000   0.0000   0.0000   0.0000   0.0000   0.0000   0.0000   0.0000
     0.0000   0.0000   0.0000   0.0000   0.0000   0.0000   0.0000   0.0000

          k = 0.0000-0.5774 0.0000 (  3794 PWs)   bands (ev):

   -81.3059 -81.0925 -81.0735 -76.4980 -76.4234 -76.3962 -46.4434 -46.4175
   -46.3029 -46.2354 -46.2339 -46.1751 -46.1613 -46.0941 -46.0267 -41.8112
   -41.8038 -41.7241 -41.7224 -41.6920 -41.6877 -41.6392 -41.5920 -41.5521
   -11.2411 -11.2022 -11.1846 -11.1802 -11.1711 -11.1652 -11.1523 -11.1378
   -11.1191 -11.1087 -11.1050 -11.0956 -11.0864 -11.0846 -11.0754 -11.0652
   -11.0608 -11.0534 -11.0471 -11.0420 -11.0381 -11.0366 -11.0324 -11.0254
   -11.0208 -11.0165 -11.0092 -10.9945 -10.9923 -10.9766  -7.8187  -7.7719
    -7.5938  -7.4380  -7.3830  -7.0484  -7.0152  -6.9464  -6.7960  -6.7094
    -6.6804  -6.6560  -6.5703  -6.5121  -6.3841  -6.3429  -6.2450  -6.1545
     0.7896   1.0154   1.0361   1.3231   1.3843   1.5880   4.9616   5.2698
     5.2933   5.4494   5.5928   5.6240   5.6628   5.7114   5.7298   5.9085
     5.9267   5.9797   6.1174   6.1674   6.3176   6.4548   6.5281   6.5865
     6.5952   6.6869   6.8602   6.9062   7.0168   7.0709   7.1240   7.2653
     7.3364   7.3691   7.5183   7.5970   7.6300   7.6921   7.7418   7.8408
     7.8929   7.9767   8.0513   8.0805   8.1434   8.2188   8.3234   8.3706
     8.4245   8.5215   8.5649   8.6364   8.8158   8.9447   8.9627   9.0201
     9.0534   9.0763   9.1443   9.2225   9.3082   9.3374   9.4067   9.5616
     9.8493  10.0147  10.0408  10.1609  10.2428  10.3998  10.5353  10.7116
    10.7626  10.8390  11.0821  11.6231  11.7411  11.8468  11.8848  11.9560
    11.9900  12.1112  12.2351  12.3397  12.7228  12.8698  13.1289  13.2525
    13.2916  13.8124  14.2608  14.8688  14.9202  15.1448  15.2174  15.2467
    15.2828  15.3439  15.4581  16.4767  16.5214  16.6040  16.6661  16.7902
    16.8525  16.9206  16.9829  17.0599  19.8612  20.0288  20.3116  20.7754
    20.9108  20.9956  21.4992  21.6602  21.7878  22.0703  22.1211  22.1459
    22.2603  22.3076  22.7007  22.7498  22.9587  23.0180  23.0826  23.1305

     occupation numbers 
     1.0000   1.0000   1.0000   1.0000   1.0000   1.0000   1.0000   1.0000
     1.0000   1.0000   1.0000   1.0000   1.0000   1.0000   1.0000   1.0000
     1.0000   1.0000   1.0000   1.0000   1.0000   1.0000   1.0000   1.0000
     1.0000   1.0000   1.0000   1.0000   1.0000   1.0000   1.0000   1.0000
     1.0000   1.0000   1.0000   1.0000   1.0000   1.0000   1.0000   1.0000
     1.0000   1.0000   1.0000   1.0000   1.0000   1.0000   1.0000   1.0000
     1.0000   1.0000   1.0000   1.0000   1.0000   1.0000   1.0000   1.0000
     1.0000   1.0000   1.0000   1.0000   1.0000   1.0000   1.0000   1.0000
     1.0000   1.0000   1.0000   1.0000   1.0000   1.0000   1.0000   1.0000
     1.0000   1.0000   1.0000   1.0000   1.0000   1.0000   1.0000   1.0000
     1.0000   1.0000   1.0000   1.0000   1.0000   1.0000   1.0000   1.0000
     1.0000   1.0000   1.0000   1.0000   1.0000   1.0000   1.0000   1.0000
     1.0000   1.0000   1.0000   1.0000   1.0000   1.0000   1.0000   1.0000
     1.0000   1.0000   1.0000   1.0000   1.0000   1.0000   1.0000   1.0000
     1.0000   1.0000   1.0000   1.0000   1.0000   1.0000   1.0000   1.0000
     1.0000   1.0000   1.0000   1.0000   1.0000   1.0000   1.0000   1.0000
     1.0000   1.0000   1.0000   1.0000   1.0000   1.0000   1.0000   1.0000
     1.0000   1.0000   1.0000   1.0000   1.0000   1.0000   1.0000   1.0000
     1.0000   1.0000   0.9975   0.0024   0.0000   0.0000   0.0000   0.0000
     0.0000   0.0000   0.0000   0.0000   0.0000   0.0000   0.0000   0.0000
     0.0000   0.0000   0.0000   0.0000   0.0000   0.0000   0.0000   0.0000
     0.0000   0.0000   0.0000   0.0000   0.0000   0.0000   0.0000   0.0000
     0.0000   0.0000   0.0000   0.0000   0.0000   0.0000   0.0000   0.0000
     0.0000   0.0000   0.0000   0.0000   0.0000   0.0000   0.0000   0.0000
     0.0000   0.0000   0.0000   0.0000   0.0000   0.0000   0.0000   0.0000

 ------ SPIN DOWN ----------


          k = 0.0000 0.0000 0.0000 (  3823 PWs)   bands (ev):

   -81.3078 -81.1176 -81.0739 -76.5228 -76.4224 -76.4127 -46.4361 -46.3968
   -46.3967 -46.2474 -46.2474 -46.2474 -46.1816 -46.1324 -46.1324 -41.8317
   -41.7887 -41.7887 -41.7232 -41.7176 -41.7176 -41.6959 -41.6460 -41.6460
   -11.2442 -11.2442 -11.2030 -11.2030 -11.1821 -11.1821 -11.1413 -11.1327
   -11.1183 -11.1183 -11.1084 -11.1084 -11.0974 -11.0974 -11.0813 -11.0662
   -11.0469 -11.0469 -11.0387 -11.0387 -11.0313 -11.0296 -11.0296 -11.0178
   -11.0178 -11.0130 -10.9920 -10.9920 -10.9764 -10.9764  -8.4442  -8.0702
    -7.9669  -7.2439  -7.1784  -6.8245  -6.8244  -6.6846  -6.6846  -6.6728
    -6.5862  -6.5861  -6.4807  -6.4806  -6.3129  -6.3129  -6.1349  -6.1348
     0.6244   0.8572   0.9325   1.6854   1.8201   2.5576   4.7802   4.7802
     4.9524   5.2930   5.2931   5.3797   5.4315   5.4315   5.5737   5.6925
     5.6925   5.7973   5.8878   5.8878   6.0447   6.0890   6.0890   6.2522
     6.2523   6.2621   6.3598   6.5828   6.5828   6.8433   6.8433   6.9966
     7.1633   7.4974   7.5449   7.5450   7.7778   7.7779   7.8389   7.8389
     7.9444   8.0590   8.1579   8.1579   8.3663   8.3672   8.3673   8.4953
     8.5079   8.5079   8.6309   8.6309   8.7837   8.7837   9.0998   9.0998
     9.2064   9.2289   9.2289   9.2794   9.2795   9.6939   9.6939   9.8863
     9.8863  10.0197  10.1428  10.3119  10.3842  10.4437  10.4437  10.5203
    10.6146  11.0848  11.0849  11.6722  11.6722  11.7875  11.7875  11.8287
    11.9685  11.9685  11.9737  12.0603  12.6713  12.6713  13.2816  13.2816
    13.8617  13.8617  14.8771  14.9839  15.1033  15.1318  16.1623  16.1623
    16.2963  16.2963  16.3333  16.3334  16.6926  16.7530  16.9451  16.9451
    17.0275  17.0275  17.5081  17.5081  18.0495  19.4169  19.5877  19.7356
    20.4608  20.4608  20.7614  20.8368  21.4791  21.4791  21.5894  21.5894
    21.8506  21.8507  22.6735  22.8150  22.8159  22.8922  22.9686  22.9689

     occupation numbers 
     1.0000   1.0000   1.0000   1.0000   1.0000   1.0000   1.0000   1.0000
     1.0000   1.0000   1.0000   1.0000   1.0000   1.0000   1.0000   1.0000
     1.0000   1.0000   1.0000   1.0000   1.0000   1.0000   1.0000   1.0000
     1.0000   1.0000   1.0000   1.0000   1.0000   1.0000   1.0000   1.0000
     1.0000   1.0000   1.0000   1.0000   1.0000   1.0000   1.0000   1.0000
     1.0000   1.0000   1.0000   1.0000   1.0000   1.0000   1.0000   1.0000
     1.0000   1.0000   1.0000   1.0000   1.0000   1.0000   1.0000   1.0000
     1.0000   1.0000   1.0000   1.0000   1.0000   1.0000   1.0000   1.0000
     1.0000   1.0000   1.0000   1.0000   1.0000   1.0000   1.0000   1.0000
     1.0000   1.0000   1.0000   1.0000   1.0000   1.0000   1.0000   1.0000
     1.0000   1.0000   1.0000   1.0000   1.0000   1.0000   1.0000   1.0000
     1.0000   1.0000   1.0000   1.0000   1.0000   1.0000   1.0000   1.0000
     1.0000   1.0000   1.0000   1.0000   1.0000   1.0000   1.0000   1.0000
     1.0000   1.0000   1.0000   1.0000   1.0000   1.0000   1.0000   1.0000
     1.0000   1.0000   1.0000   1.0000   1.0000   1.0000   1.0000   1.0000
     1.0000   1.0000   1.0000   1.0000   1.0000   1.0000   1.0000   1.0000
     1.0000   1.0000   1.0000   1.0000   1.0000   1.0000   1.0000   1.0000
     1.0000   1.0000   1.0000   1.0000   1.0000   1.0000   1.0000   1.0000
     1.0000   0.9973   0.9973   0.0004   0.0004   0.0000   0.0000   0.0000
     0.0000   0.0000   0.0000   0.0000   0.0000   0.0000   0.0000   0.0000
     0.0000   0.0000   0.0000   0.0000   0.0000   0.0000   0.0000   0.0000
     0.0000   0.0000   0.0000   0.0000   0.0000   0.0000   0.0000   0.0000
     0.0000   0.0000   0.0000   0.0000   0.0000   0.0000   0.0000   0.0000
     0.0000   0.0000   0.0000   0.0000   0.0000   0.0000   0.0000   0.0000
     0.0000   0.0000   0.0000   0.0000   0.0000   0.0000   0.0000   0.0000

          k = 0.0000-0.5774 0.0000 (  3794 PWs)   bands (ev):

   -81.2977 -81.1069 -81.0640 -76.5135 -76.4112 -76.4052 -46.4310 -46.4167
   -46.2909 -46.2542 -46.2251 -46.1675 -46.1671 -46.1135 -46.0203 -41.8290
   -41.8091 -41.7342 -41.7065 -41.6961 -41.6939 -41.6579 -41.5779 -41.5488
   -11.2408 -11.2027 -11.1837 -11.1794 -11.1722 -11.1614 -11.1517 -11.1394
   -11.1170 -11.1156 -11.1035 -11.0951 -11.0878 -11.0827 -11.0741 -11.0690
   -11.0614 -11.0543 -11.0467 -11.0440 -11.0413 -11.0364 -11.0293 -11.0253
   -11.0219 -11.0083 -11.0064 -10.9975 -10.9944 -10.9786  -7.8199  -7.7724
    -7.5943  -7.4395  -7.3834  -7.0487  -7.0161  -6.9473  -6.7965  -6.7096
    -6.6823  -6.6552  -6.5730  -6.5142  -6.3849  -6.3443  -6.2447  -6.1545
     0.7891   1.0145   1.0360   1.3236   1.3828   1.5874   4.9616   5.2680
     5.2958   5.4486   5.5917   5.6208   5.6618   5.7097   5.7310   5.9062
     5.9272   5.9801   6.1181   6.1659   6.3179   6.4561   6.5286   6.5866
     6.5959   6.6866   6.8583   6.9057   7.0184   7.0683   7.1241   7.2654
     7.3348   7.3692   7.5178   7.5951   7.6312   7.6919   7.7392   7.8390
     7.8912   7.9776   8.0499   8.0798   8.1437   8.2126   8.3222   8.3699
     8.4234   8.5186   8.5630   8.6362   8.8141   8.9446   8.9619   9.0192
     9.0536   9.0746   9.1423   9.2195   9.3088   9.3385   9.4053   9.5634
     9.8486  10.0139  10.0408  10.1584  10.2427  10.4006  10.5361  10.7122
    10.7616  10.8379  11.0800  11.5970  11.7348  11.8439  11.8840  11.9749
    11.9908  12.1262  12.2328  12.3421  12.7208  12.8656  13.1256  13.2478
    13.2849  13.8112  14.2593  14.8684  14.9196  15.1445  15.2163  15.2444
    15.2829  15.3429  15.4568  16.4767  16.5208  16.6029  16.6657  16.7905
    16.8536  16.9169  16.9807  17.0599  19.8644  20.0282  20.3098  20.7752
    20.9057  20.9940  21.4997  21.6605  21.7854  22.0716  22.1181  22.1469
    22.2592  22.3058  22.6973  22.7521  22.9564  23.0173  23.0754  23.1354

     occupation numbers 
     1.0000   1.0000   1.0000   1.0000   1.0000   1.0000   1.0000   1.0000
     1.0000   1.0000   1.0000   1.0000   1.0000   1.0000   1.0000   1.0000
     1.0000   1.0000   1.0000   1.0000   1.0000   1.0000   1.0000   1.0000
     1.0000   1.0000   1.0000   1.0000   1.0000   1.0000   1.0000   1.0000
     1.0000   1.0000   1.0000   1.0000   1.0000   1.0000   1.0000   1.0000
     1.0000   1.0000   1.0000   1.0000   1.0000   1.0000   1.0000   1.0000
     1.0000   1.0000   1.0000   1.0000   1.0000   1.0000   1.0000   1.0000
     1.0000   1.0000   1.0000   1.0000   1.0000   1.0000   1.0000   1.0000
     1.0000   1.0000   1.0000   1.0000   1.0000   1.0000   1.0000   1.0000
     1.0000   1.0000   1.0000   1.0000   1.0000   1.0000   1.0000   1.0000
     1.0000   1.0000   1.0000   1.0000   1.0000   1.0000   1.0000   1.0000
     1.0000   1.0000   1.0000   1.0000   1.0000   1.0000   1.0000   1.0000
     1.0000   1.0000   1.0000   1.0000   1.0000   1.0000   1.0000   1.0000
     1.0000   1.0000   1.0000   1.0000   1.0000   1.0000   1.0000   1.0000
     1.0000   1.0000   1.0000   1.0000   1.0000   1.0000   1.0000   1.0000
     1.0000   1.0000   1.0000   1.0000   1.0000   1.0000   1.0000   1.0000
     1.0000   1.0000   1.0000   1.0000   1.0000   1.0000   1.0000   1.0000
     1.0000   1.0000   1.0000   1.0000   1.0000   1.0000   1.0000   1.0000
     1.0000   1.0000   0.9977   0.0055   0.0000   0.0000   0.0000   0.0000
     0.0000   0.0000   0.0000   0.0000   0.0000   0.0000   0.0000   0.0000
     0.0000   0.0000   0.0000   0.0000   0.0000   0.0000   0.0000   0.0000
     0.0000   0.0000   0.0000   0.0000   0.0000   0.0000   0.0000   0.0000
     0.0000   0.0000   0.0000   0.0000   0.0000   0.0000   0.0000   0.0000
     0.0000   0.0000   0.0000   0.0000   0.0000   0.0000   0.0000   0.0000
     0.0000   0.0000   0.0000   0.0000   0.0000   0.0000   0.0000   0.0000

     the Fermi energy is    11.3521 ev

!    total energy              =   -3180.09566410 Ry
     estimated scf accuracy    <       0.00053635 Ry
     smearing contrib. (-TS)   =      -0.00027665 Ry
     internal energy E=F+TS    =   -3180.09538746 Ry

     The total energy is F=E-TS. E is the sum of the following terms:
     one-electron contribution =   -1289.01885464 Ry
     hartree contribution      =     822.20975770 Ry
     xc contribution           =    -685.63716106 Ry
     ewald contribution        =   -2027.64912945 Ry

     total magnetization       =    -0.00 Bohr mag/cell
     absolute magnetization    =    27.51 Bohr mag/cell

     convergence has been achieved in  20 iterations

     Writing output data file /home/aldair1809/Documentos/QE/4BFO/UHUBBARD/temp/pseudo_o_pbesol_v1.2.uspp.F.UPF_ecutwfc_20.in/bifeo3-scf.save/

     init_run     :      6.38s CPU      6.53s WALL (       1 calls)
     electrons    :    449.70s CPU    457.85s WALL (       1 calls)

     Called by init_run:
     wfcinit      :      5.50s CPU      5.57s WALL (       1 calls)
     wfcinit:atom :      0.01s CPU      0.01s WALL (       4 calls)
     wfcinit:wfcr :      5.42s CPU      5.47s WALL (       4 calls)
     potinit      :      0.16s CPU      0.16s WALL (       1 calls)
     hinit0       :      0.41s CPU      0.42s WALL (       1 calls)

     Called by electrons:
     c_bands      :    410.50s CPU    418.04s WALL (      20 calls)
     sum_band     :     33.31s CPU     33.86s WALL (      20 calls)
     v_of_rho     :      0.68s CPU      0.71s WALL (      21 calls)
     v_h          :      0.01s CPU      0.02s WALL (      21 calls)
     v_xc         :      0.66s CPU      0.70s WALL (      21 calls)
     newd         :      5.35s CPU      5.43s WALL (      21 calls)
     mix_rho      :      0.15s CPU      0.15s WALL (      20 calls)

     Called by c_bands:
     init_us_2    :      0.68s CPU      0.69s WALL (     164 calls)
     ccgdiagg     :    308.87s CPU    315.35s WALL (      80 calls)
     wfcrot       :    106.41s CPU    107.51s WALL (      80 calls)

     Called by sum_band:
     sum_band:wei :      0.02s CPU      0.02s WALL (      20 calls)
     sum_band:loo :     26.82s CPU     27.34s WALL (      20 calls)
     sum_band:buf :      0.13s CPU      0.13s WALL (      80 calls)
     sum_band:ini :      0.33s CPU      0.33s WALL (      80 calls)
     sum_band:cal :     22.09s CPU     22.17s WALL (      80 calls)
     sum_band:bec :      0.41s CPU      0.42s WALL (      80 calls)
     addusdens    :      6.39s CPU      6.42s WALL (      20 calls)
     addusd:skk   :      0.03s CPU      0.03s WALL (      80 calls)
     addusd:dgemm :      2.99s CPU      3.00s WALL (     160 calls)
     addusd:qvan2 :      3.30s CPU      3.30s WALL (     160 calls)

     Called by *cgdiagg:
     h_psi        :    174.50s CPU    179.88s WALL (   33889 calls)
     s_psi        :    120.60s CPU    121.39s WALL (   67698 calls)

     Called by h_psi:
     h_psi:calbec :     73.88s CPU     76.82s WALL (   33889 calls)
     vloc_psi     :     27.60s CPU     29.73s WALL (   33889 calls)
     add_vuspsi   :     72.27s CPU     72.65s WALL (   33889 calls)
     hs_1psi      :    171.35s CPU    176.10s WALL (   33809 calls)
     s_1psi       :     98.38s CPU     99.74s WALL (   33809 calls)

     General routines
     calbec       :    144.80s CPU    149.01s WALL (   67778 calls)
     fft          :      0.18s CPU      0.20s WALL (     439 calls)
     ffts         :      0.02s CPU      0.02s WALL (      40 calls)
     fftw         :     26.51s CPU     28.74s WALL (  115650 calls)

     Parallel routines
     fft_scatt_xy :      4.43s CPU      4.79s WALL (  116129 calls)
     fft_scatt_yz :      7.32s CPU      8.05s WALL (  116129 calls)

     PWSCF        :   7m36.45s CPU   7m44.85s WALL


   This run was terminated on:  21:57:16  28Sep2024            

=------------------------------------------------------------------------------=
   JOB DONE.
=------------------------------------------------------------------------------=
