
     Program PWSCF v.6.7MaX starts on  6Nov2024 at 17:59: 2 

     This program is part of the open-source Quantum ESPRESSO suite
     for quantum simulation of materials; please cite
         "P. Giannozzi et al., J. Phys.:Condens. Matter 21 395502 (2009);
         "P. Giannozzi et al., J. Phys.:Condens. Matter 29 465901 (2017);
          URL http://www.quantum-espresso.org", 
     in publications or presentations arising from this work. More details at
     http://www.quantum-espresso.org/quote

     Parallel version (MPI), running on     6 processors

     MPI processes distributed on     1 nodes
     R & G space division:  proc/nbgrp/npool/nimage =       6
     Waiting for input...
     Reading input from standard input

     Current dimensions of program PWSCF are:
     Max number of different atomic species (ntypx) = 10
     Max number of k-points (npk) =  40000
     Max angular momentum in pseudopotentials (lmaxx) =  3

     Subspace diagonalization in iterative solution of the eigenvalue problem:
     one sub-group per band group will be used
     scalapack distributed-memory algorithm (size of sub-group:  2*  2 procs)


     Parallelization info
     --------------------
     sticks:   dense  smooth     PW     G-vecs:    dense   smooth      PW
     Min         312     155     44                27150     9609    1486
     Max         314     156     45                27152     9617    1492
     Sum        1879     931    265               162905    57675    8929



     bravais-lattice index     =            4
     lattice parameter (alat)  =      10.6119  a.u.
     unit-cell volume          =    2595.2065 (a.u.)^3
     number of atoms/cell      =           30
     number of atomic types    =            4
     number of electrons       =       294.00 (up: 147.00, down: 147.00)
     number of Kohn-Sham states=          200
     kinetic-energy cutoff     =      30.0000  Ry
     charge density cutoff     =     240.0000  Ry
     scf convergence threshold =      1.0E-05
     mixing beta               =       0.2000
     number of iterations used =            8  plain     mixing
     energy convergence thresh.=      1.0E-04
     force convergence thresh. =      1.0E-03
     press convergence thresh. =      5.0E-01
     Exchange-correlation=  SLA  PW   PBX  PBC
                           (   1   4   3   4   0   0   0)
     nstep                     =           50


     celldm(1)=  10.611940  celldm(2)=   0.000000  celldm(3)=   2.507593
     celldm(4)=   0.000000  celldm(5)=   0.000000  celldm(6)=   0.000000

     crystal axes: (cart. coord. in units of alat)
               a(1) = (   1.000000   0.000000   0.000000 )  
               a(2) = (  -0.500000   0.866025   0.000000 )  
               a(3) = (   0.000000   0.000000   2.507593 )  

     reciprocal axes: (cart. coord. in units 2 pi/alat)
               b(1) = (  1.000000  0.577350 -0.000000 )  
               b(2) = (  0.000000  1.154701  0.000000 )  
               b(3) = (  0.000000 -0.000000  0.398789 )  


     PseudoPot. # 1 for O  read from file:
     /home/aldair1809/Programas/QE/q-e-qe-7.3/pseudo/o_pbe_v1.2.uspp.F.UPF
     MD5 check sum: 734c27235a0248c51dbae37a1fbe46ec
     Pseudo is Ultrasoft + core correction, Zval =  6.0
     Generated by new atomic code, or converted to UPF format
     Using radial grid of  737 points,  5 beta functions with: 
                l(1) =   0
                l(2) =   0
                l(3) =   1
                l(4) =   1
                l(5) =   2
     Q(r) pseudized with  8 coefficients,  rinner =    0.900   0.900   0.900
                                                       0.900   0.900

     PseudoPot. # 2 for Bi read from file:
     /home/aldair1809/Programas/QE/q-e-qe-7.3/pseudo/bi_pbe_v1.uspp.F.UPF
     MD5 check sum: cceb9f28ec65b6d7ff33140f5b0b1758
     Pseudo is Ultrasoft + core correction, Zval = 15.0
     Generated by new atomic code, or converted to UPF format
     Using radial grid of  899 points,  6 beta functions with: 
                l(1) =   0
                l(2) =   0
                l(3) =   1
                l(4) =   1
                l(5) =   2
                l(6) =   2
     Q(r) pseudized with  6 coefficients,  rinner =    1.000   1.000   1.000
                                                       1.000   1.000

     PseudoPot. # 3 for Fe read from file:
     /home/aldair1809/Programas/QE/q-e-qe-7.3/pseudo/fe_pbe_v1.5.uspp.F.UPF
     MD5 check sum: a130daea23fe5165f5d574ae7f82ed95
     Pseudo is Ultrasoft + core correction, Zval = 16.0
     Generated by new atomic code, or converted to UPF format
     Using radial grid of  861 points,  6 beta functions with: 
                l(1) =   0
                l(2) =   0
                l(3) =   1
                l(4) =   1
                l(5) =   2
                l(6) =   2
     Q(r) pseudized with  8 coefficients,  rinner =    1.000   1.000   1.000
                                                       1.000   1.000

     PseudoPot. # 4 for Fe read from file:
     /home/aldair1809/Programas/QE/q-e-qe-7.3/pseudo/fe_pbe_v1.5.uspp.F.UPF
     MD5 check sum: a130daea23fe5165f5d574ae7f82ed95
     Pseudo is Ultrasoft + core correction, Zval = 16.0
     Generated by new atomic code, or converted to UPF format
     Using radial grid of  861 points,  6 beta functions with: 
                l(1) =   0
                l(2) =   0
                l(3) =   1
                l(4) =   1
                l(5) =   2
                l(6) =   2
     Q(r) pseudized with  8 coefficients,  rinner =    1.000   1.000   1.000
                                                       1.000   1.000

     atomic species   valence    mass     pseudopotential
        O              6.00    15.99940     O ( 1.00)
        Bi            15.00   208.98040     Bi( 1.00)
        Fe1           16.00    55.84500     Fe( 1.00)
        Fe2           16.00    55.84500     Fe( 1.00)

     Starting magnetic structure 
     atomic species   magnetization
        O            0.000
        Bi           0.000
        Fe1          0.800
        Fe2         -0.800

      3 Sym. Ops. (no inversion) found


                                    s                        frac. trans.

      isym =  1     identity                                     

 cryst.   s( 1) = (     1          0          0      )
                  (     0          1          0      )
                  (     0          0          1      )

 cart.    s( 1) = (  1.0000000  0.0000000  0.0000000 )
                  (  0.0000000  1.0000000  0.0000000 )
                  (  0.0000000  0.0000000  1.0000000 )


      isym =  2     120 deg rotation - cryst. axis [0,0,1]       

 cryst.   s( 2) = (     0          1          0      )
                  (    -1         -1          0      )
                  (     0          0          1      )

 cart.    s( 2) = ( -0.5000000 -0.8660254  0.0000000 )
                  (  0.8660254 -0.5000000  0.0000000 )
                  (  0.0000000  0.0000000  1.0000000 )


      isym =  3     120 deg rotation - cryst. axis [0,0,-1]      

 cryst.   s( 3) = (    -1         -1          0      )
                  (     1          0          0      )
                  (     0          0          1      )

 cart.    s( 3) = ( -0.5000000  0.8660254  0.0000000 )
                  ( -0.8660254 -0.5000000  0.0000000 )
                  (  0.0000000  0.0000000  1.0000000 )


     point group C_3 (3)    
     there are  3 classes
     the character table:

       E     C3    C3^2 
A      1.00  1.00  1.00
E      1.00 -0.50 -0.50
E*     1.00 -0.50 -0.50
     imaginary part
A      0.00  0.00  0.00
E      0.00  0.87 -0.87
E*     0.00 -0.87  0.87

     the symmetry operations in each class and the name of the first element:

     E        1
          identity                                               
     C3       2
          120 deg rotation - cryst. axis [0,0,1]                 
     C3^2     3
          120 deg rotation - cryst. axis [0,0,-1]                

   Cartesian axes

     site n.     atom                  positions (alat units)
         1           Fe2 tau(   1) = (   0.0000000   0.0000000   1.9478107  )
         2           Fe1 tau(   2) = (  -0.0000005   0.5773506   2.3729494  )
         3           Fe1 tau(   3) = (   0.5000005   0.2886748   1.5274126  )
         4           Fe2 tau(   4) = (   0.5000005   0.2886748   0.2735761  )
         5           Fe1 tau(   5) = (   0.0000000   0.0000000   0.6940396  )
         6           Fe2 tau(   6) = (  -0.0000005   0.5773506   1.1191187  )
         7           Bi  tau(   7) = (   0.5000005   0.2886748   2.0943705  )
         8           Bi  tau(   8) = (  -0.0000005   0.5773506   1.6794620  )
         9           Bi  tau(   9) = (  -0.0000005   0.5773506   0.4255883  )
        10           Bi  tau(  10) = (   0.0000000   0.0000000   0.0002835  )
        11           Bi  tau(  11) = (   0.0000000   0.0000000   1.2541243  )
        12           Bi  tau(  12) = (   0.5000005   0.2886748   0.8405223  )
        13           O   tau(  13) = (  -0.3105904   0.6551932   2.2117497  )
        14           O   tau(  14) = (   0.0878817   0.2694488   2.2117497  )
        15           O   tau(  15) = (   0.2227102   0.8074080   2.2117497  )
        16           O   tau(  16) = (   0.4087504   0.5589755   1.7932577  )
        17           O   tau(  17) = (   0.3115373   0.0745013   1.7932577  )
        18           O   tau(  18) = (   0.7797108   0.2325494   1.7932577  )
        19           O   tau(  19) = (   0.6884743   0.0745026   0.5394144  )
        20           O   tau(  20) = (   0.5912412   0.5589858   0.5394144  )
        21           O   tau(  21) = (   0.2202830   0.2325379   0.5394144  )
        22           O   tau(  22) = (  -0.0823010   0.8482993   0.1171819  )
        23           O   tau(  23) = (  -0.1934983   0.3706010   0.1171819  )
        24           O   tau(  24) = (   0.2757993   0.5131505   0.1171819  )
        25           O   tau(  25) = (   0.1934855   0.3705936   1.3710260  )
        26           O   tau(  26) = (   0.0823138   0.8482919   1.3710260  )
        27           O   tau(  27) = (  -0.2757993   0.5131653   1.3710260  )
        28           O   tau(  28) = (  -0.0878870   0.2694458   0.9579683  )
        29           O   tau(  29) = (   0.3105971   0.6551893   0.9579683  )
        30           O   tau(  30) = (  -0.2227086   0.8074149   0.9579683  )

   Crystallographic axes

     site n.     atom                  positions (cryst. coord.)
         1           Fe2 tau(   1) = (  0.0000000  0.0000000  0.7767652  )
         2           Fe1 tau(   2) = (  0.3333330  0.6666670  0.9463058  )
         3           Fe1 tau(   3) = (  0.6666670  0.3333330  0.6091152  )
         4           Fe2 tau(   4) = (  0.6666670  0.3333330  0.1090991  )
         5           Fe1 tau(   5) = (  0.0000000  0.0000000  0.2767753  )
         6           Fe2 tau(   6) = (  0.3333330  0.6666670  0.4462921  )
         7           Bi  tau(   7) = (  0.6666670  0.3333330  0.8352117  )
         8           Bi  tau(   8) = (  0.3333330  0.6666670  0.6697508  )
         9           Bi  tau(   9) = (  0.3333330  0.6666670  0.1697199  )
        10           Bi  tau(  10) = (  0.0000000  0.0000000  0.0001130  )
        11           Bi  tau(  11) = (  0.0000000  0.0000000  0.5001308  )
        12           Bi  tau(  12) = (  0.6666670  0.3333330  0.3351910  )
        13           O   tau(  13) = (  0.0676856  0.7565520  0.8820212  )
        14           O   tau(  14) = (  0.2434480  0.3111326  0.8820212  )
        15           O   tau(  15) = (  0.6888674  0.9323144  0.8820212  )
        16           O   tau(  16) = (  0.7314750  0.6454493  0.7151312  )
        17           O   tau(  17) = (  0.3545507  0.0860267  0.7151312  )
        18           O   tau(  18) = (  0.9139733  0.2685250  0.7151312  )
        19           O   tau(  19) = (  0.7314884  0.0860282  0.2151125  )
        20           O   tau(  20) = (  0.9139718  0.6454612  0.2151125  )
        21           O   tau(  21) = (  0.3545388  0.2685116  0.2151125  )
        22           O   tau(  22) = (  0.4074649  0.9795317  0.0467309  )
        23           O   tau(  23) = (  0.0204683  0.4279331  0.0467309  )
        24           O   tau(  24) = (  0.5720669  0.5925351  0.0467309  )
        25           O   tau(  25) = (  0.4074478  0.4279246  0.5467499  )
        26           O   tau(  26) = (  0.5720754  0.9795232  0.5467499  )
        27           O   tau(  27) = (  0.0204768  0.5925522  0.5467499  )
        28           O   tau(  28) = (  0.0676776  0.3111292  0.3820271  )
        29           O   tau(  29) = (  0.6888708  0.7565474  0.3820271  )
        30           O   tau(  30) = (  0.2434526  0.9323225  0.3820271  )

     number of k points=     6  Methfessel-Paxton smearing, width (Ry)=  0.0100
                       cart. coord. in units 2pi/alat
        k(    1) = (   0.0000000   0.0000000   0.0000000), wk =   0.0555556
        k(    2) = (   0.0000000   0.0000000  -0.1993944), wk =   0.0555556
        k(    3) = (   0.0000000   0.3849002   0.0000000), wk =   0.3333333
        k(    4) = (   0.0000000   0.3849002  -0.1993944), wk =   0.3333333
        k(    5) = (   0.3333333   0.5773503   0.0000000), wk =   0.1111111
        k(    6) = (   0.3333333   0.5773503  -0.1993944), wk =   0.1111111

                       cryst. coord.
        k(    1) = (   0.0000000   0.0000000   0.0000000), wk =   0.0555556
        k(    2) = (   0.0000000   0.0000000  -0.5000000), wk =   0.0555556
        k(    3) = (   0.0000000   0.3333333   0.0000000), wk =   0.3333333
        k(    4) = (   0.0000000   0.3333333  -0.5000000), wk =   0.3333333
        k(    5) = (   0.3333333   0.3333333   0.0000000), wk =   0.1111111
        k(    6) = (   0.3333333   0.3333333  -0.5000000), wk =   0.1111111

     Dense  grid:   162905 G-vectors     FFT dimensions: (  54,  54, 135)

     Smooth grid:    57675 G-vectors     FFT dimensions: (  40,  40,  96)

     Dynamical RAM for                 wfc:       3.66 MB

     Dynamical RAM for     wfc (w. buffer):      47.61 MB

     Dynamical RAM for           str. fact:       1.66 MB

     Dynamical RAM for           local pot:       0.00 MB

     Dynamical RAM for          nlocal pot:       8.24 MB

     Dynamical RAM for                qrad:       9.95 MB

     Dynamical RAM for          rho,v,vnew:       5.56 MB

     Dynamical RAM for               rhoin:       1.85 MB

     Dynamical RAM for            rho*nmix:      13.26 MB

     Dynamical RAM for           G-vectors:       1.63 MB

     Dynamical RAM for          h,s,v(r/c):       0.46 MB

     Dynamical RAM for          <psi|beta>:       1.37 MB

     Dynamical RAM for      wfcinit/wfcrot:       8.24 MB

     Dynamical RAM for           addusdens:      84.93 MB

     Dynamical RAM for          addusforce:      99.16 MB

     Dynamical RAM for         addusstress:      83.90 MB

     Estimated static dynamical RAM per process >      94.89 MB

     Estimated max dynamical RAM per process >     194.05 MB

     Estimated total dynamical RAM >       1.14 GB

     Atomic positions and unit cell read from directory:
     /home/aldair1809/Documentos/QE/geom_opt_temp/bifeo3-relax.save/
     Atomic positions from file used, from input discarded


     Check: negative core charge=   -0.000016
     Generating pointlists ...
     new r_m :   0.1418 (alat units)  1.5045 (a.u.) for type    1
     new r_m :   0.1714 (alat units)  1.8193 (a.u.) for type    2
     new r_m :   0.1418 (alat units)  1.5045 (a.u.) for type    3
     new r_m :   0.1418 (alat units)  1.5046 (a.u.) for type    4

     The initial density is read from file :
     /home/aldair1809/Documentos/QE/geom_opt_temp/bifeo3-relax.save/charge-density


     negative rho (up, down):  1.213E-01 1.214E-01
     Starting wfcs from file
     Calculation restarted from scf iteration #    14

     total cpu time spent up to now is        8.8 secs

     Self-consistent Calculation

     iteration # 14     ecut=    30.00 Ry     beta= 0.20
     Calculation restarted from kpoint #     8
     CG style diagonalization
     c_bands:  1 eigenvalues not converged
     c_bands:  5 eigenvalues not converged
     c_bands:  3 eigenvalues not converged
     c_bands:  4 eigenvalues not converged
     c_bands:  2 eigenvalues not converged
     ethr =  7.85E-09,  avg # of iterations =  3.4

     negative rho (up, down):  1.214E-01 1.215E-01

     Magnetic moment per site:
     atom:    1    charge:   12.9353    magn:   -3.4577    constr:    0.0000
     atom:    2    charge:   12.9366    magn:    3.4558    constr:    0.0000
     atom:    3    charge:   12.9366    magn:    3.4571    constr:    0.0000
     atom:    4    charge:   12.9352    magn:   -3.4573    constr:    0.0000
     atom:    5    charge:   12.9365    magn:    3.4584    constr:    0.0000
     atom:    6    charge:   12.9355    magn:   -3.4549    constr:    0.0000
     atom:    7    charge:   10.6652    magn:    0.0005    constr:    0.0000
     atom:    8    charge:   10.6654    magn:   -0.0003    constr:    0.0000
     atom:    9    charge:   10.6657    magn:    0.0003    constr:    0.0000
     atom:   10    charge:   10.6638    magn:   -0.0003    constr:    0.0000
     atom:   11    charge:   10.6640    magn:    0.0004    constr:    0.0000
     atom:   12    charge:   10.6647    magn:   -0.0005    constr:    0.0000
     atom:   13    charge:    5.3016    magn:    0.0657    constr:    0.0000
     atom:   14    charge:    5.3016    magn:    0.0657    constr:    0.0000
     atom:   15    charge:    5.3016    magn:    0.0657    constr:    0.0000
     atom:   16    charge:    5.3017    magn:   -0.0679    constr:    0.0000
     atom:   17    charge:    5.3017    magn:   -0.0679    constr:    0.0000
     atom:   18    charge:    5.3016    magn:   -0.0679    constr:    0.0000
     atom:   19    charge:    5.3009    magn:    0.0679    constr:    0.0000
     atom:   20    charge:    5.3009    magn:    0.0679    constr:    0.0000
     atom:   21    charge:    5.3009    magn:    0.0679    constr:    0.0000
     atom:   22    charge:    5.3022    magn:   -0.0689    constr:    0.0000
     atom:   23    charge:    5.3022    magn:   -0.0689    constr:    0.0000
     atom:   24    charge:    5.3022    magn:   -0.0689    constr:    0.0000
     atom:   25    charge:    5.3022    magn:    0.0688    constr:    0.0000
     atom:   26    charge:    5.3022    magn:    0.0688    constr:    0.0000
     atom:   27    charge:    5.3022    magn:    0.0688    constr:    0.0000
     atom:   28    charge:    5.3019    magn:   -0.0657    constr:    0.0000
     atom:   29    charge:    5.3019    magn:   -0.0657    constr:    0.0000
     atom:   30    charge:    5.3019    magn:   -0.0657    constr:    0.0000

     total cpu time spent up to now is       89.4 secs

     End of self-consistent calculation

 ------ SPIN UP ------------


          k = 0.0000 0.0000 0.0000 (  7259 PWs)   bands (ev):

   -77.9907 -77.9831 -77.9819 -73.3385 -73.3321 -73.3298 -43.9869 -43.9738
   -43.9738 -43.9730 -43.9705 -43.9705 -43.9692 -43.9692 -43.9672 -39.4823
   -39.4737 -39.4728 -39.4437 -39.4437 -39.4387 -39.4387 -39.4353 -39.4353
   -10.7229 -10.7229 -10.6865 -10.6865 -10.6745 -10.6745 -10.6455 -10.6304
   -10.6254 -10.6254 -10.6224 -10.6224 -10.6189 -10.6170 -10.6170 -10.5871
   -10.5768 -10.5745 -10.5745 -10.5700 -10.5700 -10.5614 -10.5595 -10.5595
   -10.5537 -10.5537 -10.5431 -10.5431 -10.5227 -10.5227  -7.3712  -6.9664
    -6.9580  -6.0187  -6.0155  -5.5053  -5.5053  -5.4722  -5.4711  -5.4710
    -5.4596  -5.4596  -5.2697  -5.2696  -5.2586  -5.2586  -5.1716  -5.1716
     1.5705   1.6777   1.6976   2.4411   2.4713   3.2869   5.4851   5.4851
     5.5699   5.9912   5.9912   6.0437   6.0438   6.1469   6.1728   6.4843
     6.4843   6.5336   6.6070   6.6070   6.7125   6.9148   6.9148   6.9992
     6.9992   7.0113   7.0114   7.0139   7.0245   7.4017   7.4017   7.7477
     7.7726   8.3163   8.3163   8.4353   8.4353   8.8724   8.8832   8.8882
     8.9396   8.9396   9.1873   9.1874   9.2231   9.2231   9.2526   9.2526
     9.5430   9.5520   9.6885   9.6886   9.8006   9.8006  10.0346  10.0346
    10.1072  10.1072  10.1944  10.1944  10.2038  10.4260  10.4260  10.5652
    10.8196  10.8314  11.0206  11.3898  11.4037  11.6193  11.6193  11.8800
    11.8800  12.1183  12.1184  13.1789  13.1885  13.2504  13.2547  13.2547
    13.2736  13.2736  13.3956  13.3956  14.8990  14.8990  15.0035  15.0036
    15.2415  15.2415  15.6326  15.6541  15.8392  15.8520  17.1401  17.1402
    17.1811  17.1812  17.2224  17.2224  17.5088  17.5649  17.6898  17.6898
    17.7211  17.7211  18.1254  18.1254  19.7199  20.7252  21.1673  21.1982
    21.5860  21.5860  22.1616  22.1909  22.6741  22.6742  22.7144  22.7145
    22.7477  22.7478  24.0553  24.0553  24.0991  24.0992  24.2921  24.5522

     occupation numbers 
     1.0000   1.0000   1.0000   1.0000   1.0000   1.0000   1.0000   1.0000
     1.0000   1.0000   1.0000   1.0000   1.0000   1.0000   1.0000   1.0000
     1.0000   1.0000   1.0000   1.0000   1.0000   1.0000   1.0000   1.0000
     1.0000   1.0000   1.0000   1.0000   1.0000   1.0000   1.0000   1.0000
     1.0000   1.0000   1.0000   1.0000   1.0000   1.0000   1.0000   1.0000
     1.0000   1.0000   1.0000   1.0000   1.0000   1.0000   1.0000   1.0000
     1.0000   1.0000   1.0000   1.0000   1.0000   1.0000   1.0000   1.0000
     1.0000   1.0000   1.0000   1.0000   1.0000   1.0000   1.0000   1.0000
     1.0000   1.0000   1.0000   1.0000   1.0000   1.0000   1.0000   1.0000
     1.0000   1.0000   1.0000   1.0000   1.0000   1.0000   1.0000   1.0000
     1.0000   1.0000   1.0000   1.0000   1.0000   1.0000   1.0000   1.0000
     1.0000   1.0000   1.0000   1.0000   1.0000   1.0000   1.0000   1.0000
     1.0000   1.0000   1.0000   1.0000   1.0000   1.0000   1.0000   1.0000
     1.0000   1.0000   1.0000   1.0000   1.0000   1.0000   1.0000   1.0000
     1.0000   1.0000   1.0000   1.0000   1.0000   1.0000   1.0000   1.0000
     1.0000   1.0000   1.0000   1.0000   1.0000   1.0000   1.0000   1.0000
     1.0000   1.0000   1.0000   1.0000   1.0000   1.0000   1.0000   1.0000
     1.0000   1.0000   1.0000   1.0000   1.0000   1.0000   1.0000   1.0000
     1.0000   1.0000   1.0000   0.2384   0.1907  -0.0024  -0.0086  -0.0086
    -0.0274  -0.0274  -0.0102  -0.0102  -0.0000  -0.0000  -0.0000  -0.0000
    -0.0000  -0.0000  -0.0000  -0.0000  -0.0000  -0.0000  -0.0000  -0.0000
    -0.0000  -0.0000  -0.0000  -0.0000  -0.0000  -0.0000  -0.0000  -0.0000
    -0.0000  -0.0000  -0.0000  -0.0000  -0.0000  -0.0000  -0.0000  -0.0000
    -0.0000  -0.0000  -0.0000  -0.0000  -0.0000  -0.0000  -0.0000  -0.0000
    -0.0000  -0.0000  -0.0000  -0.0000  -0.0000  -0.0000  -0.0000  -0.0000

          k = 0.0000 0.0000-0.2064 (  7198 PWs)   bands (ev):

   -77.9906 -77.9830 -77.9817 -73.3384 -73.3320 -73.3298 -43.9865 -43.9727
   -43.9727 -43.9726 -43.9695 -43.9695 -43.9682 -43.9682 -43.9668 -39.4819
   -39.4733 -39.4725 -39.4428 -39.4428 -39.4378 -39.4377 -39.4343 -39.4343
   -10.7124 -10.7123 -10.7106 -10.7106 -10.6447 -10.6447 -10.6413 -10.6410
   -10.6410 -10.6395 -10.6222 -10.6221 -10.6203 -10.6203 -10.6040 -10.6024
   -10.5701 -10.5701 -10.5675 -10.5675 -10.5671 -10.5657 -10.5618 -10.5618
   -10.5613 -10.5613 -10.5306 -10.5306 -10.5297 -10.5297  -7.2662  -7.2631
    -6.5680  -6.4554  -5.6264  -5.6228  -5.4988  -5.4987  -5.4920  -5.4919
    -5.4385  -5.4385  -5.3084  -5.3084  -5.2009  -5.2008  -5.1973  -5.1972
     1.5829   1.5843   1.9621   1.9894   3.0062   3.0069   5.6298   5.6298
     5.6387   5.6387   5.7221   5.7252   6.2898   6.2898   6.5024   6.5024
     6.6500   6.6830   6.6830   6.7798   6.7906   6.8011   6.8111   6.8111
     6.9176   6.9177   7.0021   7.0252   7.2202   7.2203   7.2417   7.2417
     8.1327   8.1327   8.3242   8.7290   8.7290   8.7378   8.8269   8.8269
     8.9021   8.9144   9.1962   9.1963   9.2711   9.2712   9.3229   9.3229
     9.3687   9.5660   9.5660   9.9344   9.9408   9.9475   9.9475   9.9641
     9.9641  10.0106  10.0106  10.2852  10.2852  10.3645  10.3646  10.6440
    10.6592  10.9372  11.1348  11.1519  11.5998  11.6400  11.6400  11.9031
    11.9032  12.0974  12.0974  13.1536  13.2168  13.2168  13.2247  13.2351
    13.3455  13.3455  13.3674  13.3674  14.8479  14.8480  15.0636  15.1033
    15.1034  15.1985  15.1985  15.2916  16.8294  16.8398  16.9235  16.9368
    17.1451  17.1452  17.1878  17.1879  17.3290  17.3290  17.3947  17.3947
    18.0110  18.0110  18.0184  18.0185  20.2062  20.2180  21.2816  21.2901
    21.8535  21.8672  21.8672  21.8728  21.8728  22.4576  23.1551  23.1551
    23.1581  23.1581  23.7449  23.7449  23.8832  23.8832  24.3287  24.3356

     occupation numbers 
     1.0000   1.0000   1.0000   1.0000   1.0000   1.0000   1.0000   1.0000
     1.0000   1.0000   1.0000   1.0000   1.0000   1.0000   1.0000   1.0000
     1.0000   1.0000   1.0000   1.0000   1.0000   1.0000   1.0000   1.0000
     1.0000   1.0000   1.0000   1.0000   1.0000   1.0000   1.0000   1.0000
     1.0000   1.0000   1.0000   1.0000   1.0000   1.0000   1.0000   1.0000
     1.0000   1.0000   1.0000   1.0000   1.0000   1.0000   1.0000   1.0000
     1.0000   1.0000   1.0000   1.0000   1.0000   1.0000   1.0000   1.0000
     1.0000   1.0000   1.0000   1.0000   1.0000   1.0000   1.0000   1.0000
     1.0000   1.0000   1.0000   1.0000   1.0000   1.0000   1.0000   1.0000
     1.0000   1.0000   1.0000   1.0000   1.0000   1.0000   1.0000   1.0000
     1.0000   1.0000   1.0000   1.0000   1.0000   1.0000   1.0000   1.0000
     1.0000   1.0000   1.0000   1.0000   1.0000   1.0000   1.0000   1.0000
     1.0000   1.0000   1.0000   1.0000   1.0000   1.0000   1.0000   1.0000
     1.0000   1.0000   1.0000   1.0000   1.0000   1.0000   1.0000   1.0000
     1.0000   1.0000   1.0000   1.0000   1.0000   1.0000   1.0000   1.0000
     1.0000   1.0000   1.0000   1.0000   1.0000   1.0000   1.0000   1.0000
     1.0000   1.0000   1.0000   1.0000   1.0000   1.0000   1.0000   1.0000
     1.0000   1.0000   1.0000   1.0000   1.0000   1.0000   1.0000   1.0000
     1.0000   1.0000   1.0000   0.3815   0.0771   0.0771   0.0533   0.0268
    -0.0253  -0.0253  -0.0180  -0.0180  -0.0000  -0.0000  -0.0000  -0.0000
    -0.0000  -0.0000  -0.0000  -0.0000  -0.0000  -0.0000  -0.0000  -0.0000
    -0.0000  -0.0000  -0.0000  -0.0000  -0.0000  -0.0000  -0.0000  -0.0000
    -0.0000  -0.0000  -0.0000  -0.0000  -0.0000  -0.0000  -0.0000  -0.0000
    -0.0000  -0.0000  -0.0000  -0.0000  -0.0000  -0.0000  -0.0000  -0.0000
    -0.0000  -0.0000  -0.0000  -0.0000  -0.0000  -0.0000  -0.0000  -0.0000

          k = 0.0000 0.3904 0.0000 (  7204 PWs)   bands (ev):

   -77.9907 -77.9830 -77.9818 -73.3385 -73.3320 -73.3298 -43.9865 -43.9737
   -43.9729 -43.9726 -43.9704 -43.9697 -43.9689 -43.9684 -43.9669 -39.4820
   -39.4734 -39.4725 -39.4436 -39.4430 -39.4386 -39.4380 -39.4351 -39.4346
   -10.7127 -10.7033 -10.6834 -10.6789 -10.6563 -10.6498 -10.6437 -10.6413
   -10.6278 -10.6250 -10.6168 -10.6146 -10.6100 -10.5991 -10.5934 -10.5929
   -10.5867 -10.5820 -10.5772 -10.5749 -10.5739 -10.5697 -10.5672 -10.5652
   -10.5621 -10.5585 -10.5507 -10.5466 -10.5373 -10.5293  -7.0059  -6.6881
    -6.6455  -6.2059  -5.9425  -5.9106  -5.7412  -5.6452  -5.6406  -5.5753
    -5.5260  -5.3941  -5.3408  -5.3206  -5.2870  -5.2572  -5.1978  -5.1897
     1.5623   1.6080   1.8112   2.0624   2.3044   2.5257   5.7855   5.8476
     5.9023   6.0149   6.0643   6.1626   6.4160   6.4300   6.4877   6.5604
     6.6888   6.6980   6.7163   6.8464   6.8903   6.9695   7.0259   7.0677
     7.2063   7.4475   7.4914   7.5040   7.6469   7.8456   7.9013   7.9724
     8.0450   8.1867   8.2454   8.3103   8.4028   8.4075   8.5117   8.7723
     8.8316   8.8906   8.9374   9.0669   9.0938   9.1789   9.2260   9.2747
     9.3417   9.4022   9.5448   9.5782   9.7134   9.7277   9.7515   9.8325
     9.9001  10.0848  10.1112  10.2046  10.2720  10.3116  10.3684  10.7346
    10.7616  10.9001  11.0718  11.1161  11.1697  11.6647  11.7560  11.8473
    11.8986  11.9346  12.0535  13.2194  13.2525  13.2671  13.3230  13.3471
    13.3867  13.5024  13.5062  13.5440  14.3762  14.6977  14.8226  14.8436
    15.0107  15.1137  15.2745  15.6745  15.8154  15.9551  16.0463  16.2440
    16.3779  16.4094  16.7060  17.1420  17.2071  17.2364  17.2575  17.5027
    17.5612  17.6582  17.7962  17.8080  20.8068  21.5599  21.7387  21.7821
    22.3906  22.5410  22.5709  22.6088  22.7788  23.0010  23.1484  23.3490
    23.4180  23.7158  23.8694  24.1657  24.2525  24.3326  24.3403  24.5138

     occupation numbers 
     1.0000   1.0000   1.0000   1.0000   1.0000   1.0000   1.0000   1.0000
     1.0000   1.0000   1.0000   1.0000   1.0000   1.0000   1.0000   1.0000
     1.0000   1.0000   1.0000   1.0000   1.0000   1.0000   1.0000   1.0000
     1.0000   1.0000   1.0000   1.0000   1.0000   1.0000   1.0000   1.0000
     1.0000   1.0000   1.0000   1.0000   1.0000   1.0000   1.0000   1.0000
     1.0000   1.0000   1.0000   1.0000   1.0000   1.0000   1.0000   1.0000
     1.0000   1.0000   1.0000   1.0000   1.0000   1.0000   1.0000   1.0000
     1.0000   1.0000   1.0000   1.0000   1.0000   1.0000   1.0000   1.0000
     1.0000   1.0000   1.0000   1.0000   1.0000   1.0000   1.0000   1.0000
     1.0000   1.0000   1.0000   1.0000   1.0000   1.0000   1.0000   1.0000
     1.0000   1.0000   1.0000   1.0000   1.0000   1.0000   1.0000   1.0000
     1.0000   1.0000   1.0000   1.0000   1.0000   1.0000   1.0000   1.0000
     1.0000   1.0000   1.0000   1.0000   1.0000   1.0000   1.0000   1.0000
     1.0000   1.0000   1.0000   1.0000   1.0000   1.0000   1.0000   1.0000
     1.0000   1.0000   1.0000   1.0000   1.0000   1.0000   1.0000   1.0000
     1.0000   1.0000   1.0000   1.0000   1.0000   1.0000   1.0000   1.0000
     1.0000   1.0000   1.0000   1.0000   1.0000   1.0000   1.0000   1.0000
     1.0000   1.0000   1.0000   1.0000   1.0000   1.0000   1.0000   1.0000
     1.0000   1.0000   1.0000   0.0690  -0.0055  -0.0225  -0.0323  -0.0247
    -0.0124  -0.0004  -0.0004  -0.0001  -0.0000  -0.0000  -0.0000  -0.0000
    -0.0000  -0.0000  -0.0000  -0.0000  -0.0000  -0.0000  -0.0000  -0.0000
    -0.0000  -0.0000  -0.0000  -0.0000  -0.0000  -0.0000  -0.0000  -0.0000
    -0.0000  -0.0000  -0.0000  -0.0000  -0.0000  -0.0000  -0.0000  -0.0000
    -0.0000  -0.0000  -0.0000  -0.0000  -0.0000  -0.0000  -0.0000  -0.0000
    -0.0000  -0.0000  -0.0000  -0.0000  -0.0000  -0.0000  -0.0000  -0.0000

          k = 0.0000 0.3904-0.2064 (  7218 PWs)   bands (ev):

   -77.9907 -77.9831 -77.9818 -73.3385 -73.3321 -73.3298 -43.9868 -43.9736
   -43.9733 -43.9728 -43.9704 -43.9701 -43.9688 -43.9685 -43.9671 -39.4822
   -39.4735 -39.4727 -39.4436 -39.4433 -39.4385 -39.4382 -39.4350 -39.4347
   -10.7177 -10.6911 -10.6878 -10.6721 -10.6698 -10.6535 -10.6437 -10.6369
   -10.6283 -10.6248 -10.6170 -10.6120 -10.6033 -10.6001 -10.5988 -10.5926
   -10.5825 -10.5814 -10.5791 -10.5780 -10.5727 -10.5719 -10.5682 -10.5633
   -10.5585 -10.5577 -10.5526 -10.5451 -10.5438 -10.5261  -6.9232  -6.9073
    -6.4103  -6.2542  -6.0910  -5.8083  -5.7906  -5.6670  -5.6243  -5.5012
    -5.4872  -5.4046  -5.3756  -5.3435  -5.3039  -5.2171  -5.2070  -5.1980
     1.5367   1.6871   1.7551   2.0324   2.3594   2.5026   5.7242   5.8954
     5.9633   5.9926   6.1352   6.2582   6.3316   6.3617   6.4917   6.5411
     6.5556   6.6297   6.8016   6.8224   6.9660   6.9873   7.0306   7.1540
     7.1964   7.3091   7.4593   7.4806   7.5265   7.9040   8.0123   8.1003
     8.1274   8.2227   8.2944   8.3518   8.4051   8.4426   8.4894   8.5004
     8.7881   8.9348   8.9381   8.9733   9.1215   9.1674   9.2478   9.3355
     9.3440   9.3826   9.4893   9.6143   9.6713   9.7402   9.7960   9.8949
     9.9202  10.0137  10.2092  10.2129  10.2292  10.2945  10.3315  10.6296
    10.8355  10.8585  11.0564  11.1085  11.2889  11.5896  11.7866  11.8609
    11.9017  11.9843  12.0000  13.2218  13.2575  13.2705  13.3029  13.3472
    13.4011  13.4955  13.5091  13.5333  14.4871  14.5596  14.7768  14.9325
    14.9396  15.1907  15.3503  15.6307  15.7378  15.7994  16.0377  16.2441
    16.5209  16.5622  16.8832  16.9869  17.0554  17.1929  17.2279  17.5208
    17.6224  17.6444  17.7452  17.8802  21.0517  21.0965  21.8145  22.0259
    22.1811  22.5305  22.5368  22.7888  22.8081  22.8525  23.2359  23.5349
    23.5606  23.6738  23.8249  23.8856  24.0235  24.3848  24.4247  24.5543

     occupation numbers 
     1.0000   1.0000   1.0000   1.0000   1.0000   1.0000   1.0000   1.0000
     1.0000   1.0000   1.0000   1.0000   1.0000   1.0000   1.0000   1.0000
     1.0000   1.0000   1.0000   1.0000   1.0000   1.0000   1.0000   1.0000
     1.0000   1.0000   1.0000   1.0000   1.0000   1.0000   1.0000   1.0000
     1.0000   1.0000   1.0000   1.0000   1.0000   1.0000   1.0000   1.0000
     1.0000   1.0000   1.0000   1.0000   1.0000   1.0000   1.0000   1.0000
     1.0000   1.0000   1.0000   1.0000   1.0000   1.0000   1.0000   1.0000
     1.0000   1.0000   1.0000   1.0000   1.0000   1.0000   1.0000   1.0000
     1.0000   1.0000   1.0000   1.0000   1.0000   1.0000   1.0000   1.0000
     1.0000   1.0000   1.0000   1.0000   1.0000   1.0000   1.0000   1.0000
     1.0000   1.0000   1.0000   1.0000   1.0000   1.0000   1.0000   1.0000
     1.0000   1.0000   1.0000   1.0000   1.0000   1.0000   1.0000   1.0000
     1.0000   1.0000   1.0000   1.0000   1.0000   1.0000   1.0000   1.0000
     1.0000   1.0000   1.0000   1.0000   1.0000   1.0000   1.0000   1.0000
     1.0000   1.0000   1.0000   1.0000   1.0000   1.0000   1.0000   1.0000
     1.0000   1.0000   1.0000   1.0000   1.0000   1.0000   1.0000   1.0000
     1.0000   1.0000   1.0000   1.0000   1.0000   1.0000   1.0000   1.0000
     1.0000   1.0000   1.0000   1.0000   1.0000   1.0000   1.0000   1.0000
     1.0000   1.0000   1.0000   0.0616  -0.0124  -0.0252  -0.0354  -0.0247
    -0.0091  -0.0006  -0.0003  -0.0001  -0.0000  -0.0000  -0.0000  -0.0000
    -0.0000  -0.0000  -0.0000  -0.0000  -0.0000  -0.0000  -0.0000  -0.0000
    -0.0000  -0.0000  -0.0000  -0.0000  -0.0000  -0.0000  -0.0000  -0.0000
    -0.0000  -0.0000  -0.0000  -0.0000  -0.0000  -0.0000  -0.0000  -0.0000
    -0.0000  -0.0000  -0.0000  -0.0000  -0.0000  -0.0000  -0.0000  -0.0000
    -0.0000  -0.0000  -0.0000  -0.0000  -0.0000  -0.0000  -0.0000  -0.0000

          k = 0.3381 0.5856 0.0000 (  7185 PWs)   bands (ev):

   -77.9906 -77.9830 -77.9818 -73.3385 -73.3320 -73.3298 -43.9867 -43.9729
   -43.9728 -43.9727 -43.9695 -43.9695 -43.9683 -43.9683 -43.9670 -39.4821
   -39.4734 -39.4727 -39.4429 -39.4429 -39.4378 -39.4378 -39.4344 -39.4344
   -10.6867 -10.6856 -10.6786 -10.6785 -10.6764 -10.6677 -10.6341 -10.6320
   -10.6312 -10.6123 -10.6091 -10.6061 -10.6025 -10.5991 -10.5937 -10.5901
   -10.5863 -10.5800 -10.5775 -10.5759 -10.5735 -10.5729 -10.5711 -10.5701
   -10.5585 -10.5583 -10.5528 -10.5526 -10.5523 -10.5480  -6.4263  -6.4180
    -6.4165  -6.3154  -6.3129  -6.3094  -5.7859  -5.7807  -5.7737  -5.4960
    -5.4926  -5.4893  -5.3790  -5.3764  -5.3735  -5.2020  -5.2001  -5.1960
     1.8486   1.8608   1.8634   1.9190   1.9326   1.9336   5.9211   5.9353
     5.9404   6.2712   6.2724   6.2741   6.4536   6.4577   6.4649   6.6613
     6.6614   6.6661   7.1000   7.1128   7.1204   7.3152   7.3185   7.3213
     7.4035   7.4036   7.4140   7.7146   7.7204   7.7223   7.9882   7.9948
     7.9957   8.0989   8.1049   8.1074   8.4304   8.4356   8.4372   8.7048
     8.7052   8.7070   9.0268   9.0342   9.0357   9.1388   9.1426   9.1488
     9.3690   9.3741   9.3852   9.6919   9.6929   9.6952   9.9765   9.9802
     9.9807  10.0746  10.0804  10.0920  10.2720  10.2753  10.2833  10.9083
    10.9249  10.9325  11.0662  11.0837  11.0995  11.5876  11.5936  11.5962
    11.8610  11.8614  11.8699  13.3205  13.3212  13.3242  13.4574  13.4592
    13.4636  13.5403  13.5433  13.5437  14.5131  14.5173  14.5250  14.9224
    14.9389  14.9420  15.3764  15.3812  15.3894  15.7229  15.7298  15.7505
    16.5129  16.5245  16.5270  16.7626  16.7859  16.8068  17.2459  17.2509
    17.2801  17.5589  17.5894  17.6014  21.9713  22.0215  22.0346  22.5905
    22.6111  22.6160  22.9310  22.9348  22.9541  23.3172  23.3399  23.3421
    23.6232  23.6279  23.6452  24.1215  24.1566  24.1577  24.4007  24.4114

     occupation numbers 
     1.0000   1.0000   1.0000   1.0000   1.0000   1.0000   1.0000   1.0000
     1.0000   1.0000   1.0000   1.0000   1.0000   1.0000   1.0000   1.0000
     1.0000   1.0000   1.0000   1.0000   1.0000   1.0000   1.0000   1.0000
     1.0000   1.0000   1.0000   1.0000   1.0000   1.0000   1.0000   1.0000
     1.0000   1.0000   1.0000   1.0000   1.0000   1.0000   1.0000   1.0000
     1.0000   1.0000   1.0000   1.0000   1.0000   1.0000   1.0000   1.0000
     1.0000   1.0000   1.0000   1.0000   1.0000   1.0000   1.0000   1.0000
     1.0000   1.0000   1.0000   1.0000   1.0000   1.0000   1.0000   1.0000
     1.0000   1.0000   1.0000   1.0000   1.0000   1.0000   1.0000   1.0000
     1.0000   1.0000   1.0000   1.0000   1.0000   1.0000   1.0000   1.0000
     1.0000   1.0000   1.0000   1.0000   1.0000   1.0000   1.0000   1.0000
     1.0000   1.0000   1.0000   1.0000   1.0000   1.0000   1.0000   1.0000
     1.0000   1.0000   1.0000   1.0000   1.0000   1.0000   1.0000   1.0000
     1.0000   1.0000   1.0000   1.0000   1.0000   1.0000   1.0000   1.0000
     1.0000   1.0000   1.0000   1.0000   1.0000   1.0000   1.0000   1.0000
     1.0000   1.0000   1.0000   1.0000   1.0000   1.0000   1.0000   1.0000
     1.0000   1.0000   1.0000   1.0000   1.0000   1.0000   1.0000   1.0000
     1.0000   1.0000   1.0000   1.0000   1.0000   1.0000   1.0000   1.0000
     1.0000   1.0000   1.0000  -0.0329  -0.0327  -0.0319  -0.0020  -0.0019
    -0.0016  -0.0001  -0.0001  -0.0001  -0.0000  -0.0000  -0.0000  -0.0000
    -0.0000  -0.0000  -0.0000  -0.0000  -0.0000  -0.0000  -0.0000  -0.0000
    -0.0000  -0.0000  -0.0000  -0.0000  -0.0000  -0.0000  -0.0000  -0.0000
    -0.0000  -0.0000  -0.0000  -0.0000  -0.0000  -0.0000  -0.0000  -0.0000
    -0.0000  -0.0000  -0.0000  -0.0000  -0.0000  -0.0000  -0.0000  -0.0000
    -0.0000  -0.0000  -0.0000  -0.0000  -0.0000  -0.0000  -0.0000  -0.0000

          k = 0.3381 0.5856-0.2064 (  7170 PWs)   bands (ev):

   -77.9906 -77.9830 -77.9818 -73.3385 -73.3320 -73.3298 -43.9865 -43.9729
   -43.9729 -43.9725 -43.9697 -43.9697 -43.9684 -43.9684 -43.9668 -39.4820
   -39.4733 -39.4725 -39.4430 -39.4430 -39.4380 -39.4379 -39.4346 -39.4345
   -10.6833 -10.6833 -10.6828 -10.6795 -10.6742 -10.6736 -10.6248 -10.6242
   -10.6235 -10.6219 -10.6214 -10.6209 -10.5946 -10.5926 -10.5893 -10.5872
   -10.5863 -10.5844 -10.5786 -10.5764 -10.5745 -10.5721 -10.5719 -10.5712
   -10.5558 -10.5553 -10.5550 -10.5547 -10.5505 -10.5498  -6.4050  -6.3960
    -6.3923  -6.3467  -6.3443  -6.3439  -5.7099  -5.7044  -5.7009  -5.6182
    -5.6142  -5.6103  -5.2796  -5.2789  -5.2740  -5.2448  -5.2405  -5.2398
     1.8792   1.8875   1.8935   1.8963   1.8990   1.8999   5.9177   5.9318
     5.9372   6.2736   6.2764   6.2792   6.5213   6.5274   6.5302   6.6391
     6.6456   6.6460   7.0752   7.0863   7.0872   7.2022   7.2023   7.2034
     7.4199   7.4214   7.4299   7.7981   7.8003   7.8030   7.8757   7.8836
     7.8854   8.2402   8.2426   8.2450   8.4736   8.4768   8.4777   8.7572
     8.7594   8.7648   8.8438   8.8528   8.8610   9.1792   9.1880   9.1951
     9.4159   9.4177   9.4198   9.6321   9.6366   9.6372   9.9883   9.9891
     9.9893  10.0940  10.0986  10.1043  10.2722  10.2736  10.2834  10.9256
    10.9416  10.9479  11.0502  11.0692  11.0861  11.5764  11.5825  11.5863
    11.8681  11.8701  11.8779  13.3265  13.3279  13.3312  13.4414  13.4423
    13.4448  13.5529  13.5543  13.5551  14.5409  14.5470  14.5572  14.9184
    14.9334  14.9352  15.4219  15.4291  15.4366  15.5440  15.5489  15.5616
    16.7510  16.7704  16.7748  16.7770  16.7952  16.7957  17.2945  17.3277
    17.3356  17.3448  17.3805  17.3818  21.9867  22.0392  22.0512  22.6198
    22.6547  22.6604  23.0646  23.0792  23.0846  23.1120  23.1312  23.1474
    23.7704  23.7875  23.7981  23.8533  23.8654  23.8790  24.6487  24.6596

     occupation numbers 
     1.0000   1.0000   1.0000   1.0000   1.0000   1.0000   1.0000   1.0000
     1.0000   1.0000   1.0000   1.0000   1.0000   1.0000   1.0000   1.0000
     1.0000   1.0000   1.0000   1.0000   1.0000   1.0000   1.0000   1.0000
     1.0000   1.0000   1.0000   1.0000   1.0000   1.0000   1.0000   1.0000
     1.0000   1.0000   1.0000   1.0000   1.0000   1.0000   1.0000   1.0000
     1.0000   1.0000   1.0000   1.0000   1.0000   1.0000   1.0000   1.0000
     1.0000   1.0000   1.0000   1.0000   1.0000   1.0000   1.0000   1.0000
     1.0000   1.0000   1.0000   1.0000   1.0000   1.0000   1.0000   1.0000
     1.0000   1.0000   1.0000   1.0000   1.0000   1.0000   1.0000   1.0000
     1.0000   1.0000   1.0000   1.0000   1.0000   1.0000   1.0000   1.0000
     1.0000   1.0000   1.0000   1.0000   1.0000   1.0000   1.0000   1.0000
     1.0000   1.0000   1.0000   1.0000   1.0000   1.0000   1.0000   1.0000
     1.0000   1.0000   1.0000   1.0000   1.0000   1.0000   1.0000   1.0000
     1.0000   1.0000   1.0000   1.0000   1.0000   1.0000   1.0000   1.0000
     1.0000   1.0000   1.0000   1.0000   1.0000   1.0000   1.0000   1.0000
     1.0000   1.0000   1.0000   1.0000   1.0000   1.0000   1.0000   1.0000
     1.0000   1.0000   1.0000   1.0000   1.0000   1.0000   1.0000   1.0000
     1.0000   1.0000   1.0000   1.0000   1.0000   1.0000   1.0000   1.0000
     1.0000   1.0000   1.0000  -0.0313  -0.0309  -0.0299  -0.0032  -0.0031
    -0.0029  -0.0001  -0.0001  -0.0001  -0.0000  -0.0000  -0.0000  -0.0000
    -0.0000  -0.0000  -0.0000  -0.0000  -0.0000  -0.0000  -0.0000  -0.0000
    -0.0000  -0.0000  -0.0000  -0.0000  -0.0000  -0.0000  -0.0000  -0.0000
    -0.0000  -0.0000  -0.0000  -0.0000  -0.0000  -0.0000  -0.0000  -0.0000
    -0.0000  -0.0000  -0.0000  -0.0000  -0.0000  -0.0000  -0.0000  -0.0000
    -0.0000  -0.0000  -0.0000  -0.0000  -0.0000  -0.0000  -0.0000  -0.0000

 ------ SPIN DOWN ----------


          k = 0.0000 0.0000 0.0000 (  7259 PWs)   bands (ev):

   -77.9919 -77.9829 -77.9814 -73.3384 -73.3320 -73.3296 -43.9890 -43.9742
   -43.9742 -43.9723 -43.9706 -43.9706 -43.9694 -43.9694 -43.9662 -39.4820
   -39.4737 -39.4727 -39.4438 -39.4438 -39.4385 -39.4385 -39.4350 -39.4350
   -10.7229 -10.7229 -10.6865 -10.6865 -10.6745 -10.6745 -10.6456 -10.6305
   -10.6251 -10.6251 -10.6226 -10.6226 -10.6189 -10.6170 -10.6170 -10.5870
   -10.5769 -10.5744 -10.5743 -10.5702 -10.5702 -10.5615 -10.5595 -10.5595
   -10.5537 -10.5537 -10.5430 -10.5430 -10.5227 -10.5227  -7.3712  -6.9662
    -6.9582  -6.0185  -6.0156  -5.5049  -5.5049  -5.4722  -5.4710  -5.4709
    -5.4603  -5.4602  -5.2703  -5.2702  -5.2580  -5.2580  -5.1714  -5.1714
     1.5705   1.6778   1.6976   2.4412   2.4713   3.2869   5.4851   5.4851
     5.5699   5.9913   5.9914   6.0437   6.0438   6.1470   6.1727   6.4844
     6.4844   6.5339   6.6070   6.6070   6.7124   6.9148   6.9149   7.0000
     7.0000   7.0106   7.0106   7.0136   7.0248   7.4016   7.4016   7.7478
     7.7726   8.3161   8.3161   8.4352   8.4352   8.8722   8.8826   8.8889
     8.9392   8.9392   9.1871   9.1872   9.2227   9.2228   9.2529   9.2529
     9.5436   9.5511   9.6884   9.6885   9.8004   9.8004  10.0345  10.0345
    10.1072  10.1072  10.1944  10.1944  10.2039  10.4260  10.4260  10.5654
    10.8209  10.8298  11.0205  11.3886  11.4048  11.6187  11.6187  11.8795
    11.8795  12.1178  12.1179  13.1803  13.1880  13.2503  13.2548  13.2548
    13.2737  13.2737  13.3957  13.3957  14.8996  14.8996  15.0041  15.0042
    15.2420  15.2420  15.6317  15.6546  15.8389  15.8526  17.1405  17.1406
    17.1808  17.1809  17.2224  17.2225  17.5088  17.5650  17.6896  17.6896
    17.7214  17.7214  18.1254  18.1255  19.7196  20.7251  21.1670  21.1972
    21.5859  21.5859  22.1620  22.1908  22.6740  22.6740  22.7148  22.7148
    22.7474  22.7474  24.0552  24.0552  24.0992  24.0992  24.2917  24.5516

     occupation numbers 
     1.0000   1.0000   1.0000   1.0000   1.0000   1.0000   1.0000   1.0000
     1.0000   1.0000   1.0000   1.0000   1.0000   1.0000   1.0000   1.0000
     1.0000   1.0000   1.0000   1.0000   1.0000   1.0000   1.0000   1.0000
     1.0000   1.0000   1.0000   1.0000   1.0000   1.0000   1.0000   1.0000
     1.0000   1.0000   1.0000   1.0000   1.0000   1.0000   1.0000   1.0000
     1.0000   1.0000   1.0000   1.0000   1.0000   1.0000   1.0000   1.0000
     1.0000   1.0000   1.0000   1.0000   1.0000   1.0000   1.0000   1.0000
     1.0000   1.0000   1.0000   1.0000   1.0000   1.0000   1.0000   1.0000
     1.0000   1.0000   1.0000   1.0000   1.0000   1.0000   1.0000   1.0000
     1.0000   1.0000   1.0000   1.0000   1.0000   1.0000   1.0000   1.0000
     1.0000   1.0000   1.0000   1.0000   1.0000   1.0000   1.0000   1.0000
     1.0000   1.0000   1.0000   1.0000   1.0000   1.0000   1.0000   1.0000
     1.0000   1.0000   1.0000   1.0000   1.0000   1.0000   1.0000   1.0000
     1.0000   1.0000   1.0000   1.0000   1.0000   1.0000   1.0000   1.0000
     1.0000   1.0000   1.0000   1.0000   1.0000   1.0000   1.0000   1.0000
     1.0000   1.0000   1.0000   1.0000   1.0000   1.0000   1.0000   1.0000
     1.0000   1.0000   1.0000   1.0000   1.0000   1.0000   1.0000   1.0000
     1.0000   1.0000   1.0000   1.0000   1.0000   1.0000   1.0000   1.0000
     1.0000   1.0000   1.0000   0.2333   0.1948  -0.0018  -0.0083  -0.0083
    -0.0272  -0.0273  -0.0103  -0.0103  -0.0000  -0.0000  -0.0000  -0.0000
    -0.0000  -0.0000  -0.0000  -0.0000  -0.0000  -0.0000  -0.0000  -0.0000
    -0.0000  -0.0000  -0.0000  -0.0000  -0.0000  -0.0000  -0.0000  -0.0000
    -0.0000  -0.0000  -0.0000  -0.0000  -0.0000  -0.0000  -0.0000  -0.0000
    -0.0000  -0.0000  -0.0000  -0.0000  -0.0000  -0.0000  -0.0000  -0.0000
    -0.0000  -0.0000  -0.0000  -0.0000  -0.0000  -0.0000  -0.0000  -0.0000

          k = 0.0000 0.0000-0.2064 (  7198 PWs)   bands (ev):

   -77.9918 -77.9828 -77.9813 -73.3383 -73.3319 -73.3296 -43.9886 -43.9732
   -43.9731 -43.9719 -43.9695 -43.9695 -43.9683 -43.9683 -43.9658 -39.4816
   -39.4733 -39.4723 -39.4429 -39.4429 -39.4376 -39.4376 -39.4341 -39.4341
   -10.7124 -10.7124 -10.7105 -10.7105 -10.6449 -10.6449 -10.6417 -10.6408
   -10.6408 -10.6393 -10.6220 -10.6220 -10.6205 -10.6205 -10.6042 -10.6022
   -10.5693 -10.5693 -10.5683 -10.5683 -10.5669 -10.5660 -10.5621 -10.5621
   -10.5610 -10.5610 -10.5309 -10.5309 -10.5294 -10.5294  -7.2656  -7.2637
    -6.5681  -6.4553  -5.6259  -5.6233  -5.4972  -5.4971  -5.4935  -5.4933
    -5.4389  -5.4389  -5.3083  -5.3083  -5.2016  -5.2015  -5.1964  -5.1963
     1.5826   1.5846   1.9621   1.9895   3.0062   3.0069   5.6302   5.6302
     5.6384   5.6384   5.7226   5.7247   6.2900   6.2900   6.5025   6.5025
     6.6499   6.6828   6.6829   6.7778   6.7914   6.8026   6.8111   6.8111
     6.9178   6.9179   7.0038   7.0233   7.2199   7.2200   7.2419   7.2419
     8.1325   8.1325   8.3244   8.7287   8.7288   8.7378   8.8266   8.8266
     8.9020   8.9143   9.1959   9.1960   9.2712   9.2712   9.3228   9.3228
     9.3685   9.5660   9.5660   9.9340   9.9412   9.9469   9.9469   9.9644
     9.9645  10.0106  10.0106  10.2853  10.2854  10.3644  10.3644  10.6458
    10.6576  10.9369  11.1334  11.1532  11.5997  11.6394  11.6394  11.9026
    11.9026  12.0969  12.0969  13.1543  13.2170  13.2170  13.2255  13.2344
    13.3456  13.3456  13.3675  13.3675  14.8486  14.8486  15.0633  15.1039
    15.1039  15.1991  15.1991  15.2919  16.8271  16.8419  16.9251  16.9354
    17.1454  17.1454  17.1877  17.1878  17.3290  17.3290  17.3946  17.3946
    18.0106  18.0107  18.0189  18.0189  20.2052  20.2184  21.2823  21.2893
    21.8520  21.8669  21.8669  21.8730  21.8730  22.4588  23.1559  23.1559
    23.1572  23.1573  23.7446  23.7446  23.8834  23.8834  24.3268  24.3363

     occupation numbers 
     1.0000   1.0000   1.0000   1.0000   1.0000   1.0000   1.0000   1.0000
     1.0000   1.0000   1.0000   1.0000   1.0000   1.0000   1.0000   1.0000
     1.0000   1.0000   1.0000   1.0000   1.0000   1.0000   1.0000   1.0000
     1.0000   1.0000   1.0000   1.0000   1.0000   1.0000   1.0000   1.0000
     1.0000   1.0000   1.0000   1.0000   1.0000   1.0000   1.0000   1.0000
     1.0000   1.0000   1.0000   1.0000   1.0000   1.0000   1.0000   1.0000
     1.0000   1.0000   1.0000   1.0000   1.0000   1.0000   1.0000   1.0000
     1.0000   1.0000   1.0000   1.0000   1.0000   1.0000   1.0000   1.0000
     1.0000   1.0000   1.0000   1.0000   1.0000   1.0000   1.0000   1.0000
     1.0000   1.0000   1.0000   1.0000   1.0000   1.0000   1.0000   1.0000
     1.0000   1.0000   1.0000   1.0000   1.0000   1.0000   1.0000   1.0000
     1.0000   1.0000   1.0000   1.0000   1.0000   1.0000   1.0000   1.0000
     1.0000   1.0000   1.0000   1.0000   1.0000   1.0000   1.0000   1.0000
     1.0000   1.0000   1.0000   1.0000   1.0000   1.0000   1.0000   1.0000
     1.0000   1.0000   1.0000   1.0000   1.0000   1.0000   1.0000   1.0000
     1.0000   1.0000   1.0000   1.0000   1.0000   1.0000   1.0000   1.0000
     1.0000   1.0000   1.0000   1.0000   1.0000   1.0000   1.0000   1.0000
     1.0000   1.0000   1.0000   1.0000   1.0000   1.0000   1.0000   1.0000
     1.0000   1.0000   1.0000   0.3796   0.0779   0.0779   0.0520   0.0291
    -0.0254  -0.0254  -0.0181  -0.0181  -0.0000  -0.0000  -0.0000  -0.0000
    -0.0000  -0.0000  -0.0000  -0.0000  -0.0000  -0.0000  -0.0000  -0.0000
    -0.0000  -0.0000  -0.0000  -0.0000  -0.0000  -0.0000  -0.0000  -0.0000
    -0.0000  -0.0000  -0.0000  -0.0000  -0.0000  -0.0000  -0.0000  -0.0000
    -0.0000  -0.0000  -0.0000  -0.0000  -0.0000  -0.0000  -0.0000  -0.0000
    -0.0000  -0.0000  -0.0000  -0.0000  -0.0000  -0.0000  -0.0000  -0.0000

          k = 0.0000 0.3904 0.0000 (  7204 PWs)   bands (ev):

   -77.9918 -77.9829 -77.9814 -73.3383 -73.3320 -73.3296 -43.9887 -43.9741
   -43.9734 -43.9720 -43.9705 -43.9697 -43.9691 -43.9686 -43.9658 -39.4817
   -39.4734 -39.4724 -39.4437 -39.4431 -39.4384 -39.4378 -39.4348 -39.4343
   -10.7127 -10.7033 -10.6835 -10.6788 -10.6563 -10.6499 -10.6437 -10.6412
   -10.6279 -10.6248 -10.6167 -10.6147 -10.6099 -10.5991 -10.5938 -10.5925
   -10.5868 -10.5819 -10.5771 -10.5751 -10.5738 -10.5698 -10.5673 -10.5652
   -10.5621 -10.5586 -10.5507 -10.5464 -10.5373 -10.5292  -7.0059  -6.6881
    -6.6455  -6.2059  -5.9425  -5.9106  -5.7412  -5.6449  -5.6409  -5.5754
    -5.5262  -5.3941  -5.3408  -5.3206  -5.2869  -5.2571  -5.1978  -5.1896
     1.5623   1.6080   1.8112   2.0624   2.3044   2.5257   5.7857   5.8474
     5.9024   6.0150   6.0642   6.1626   6.4160   6.4302   6.4877   6.5604
     6.6887   6.6979   6.7165   6.8466   6.8904   6.9695   7.0260   7.0677
     7.2064   7.4476   7.4915   7.5039   7.6468   7.8456   7.9013   7.9724
     8.0449   8.1866   8.2454   8.3103   8.4027   8.4075   8.5116   8.7724
     8.8314   8.8905   8.9373   9.0667   9.0937   9.1788   9.2261   9.2747
     9.3414   9.4022   9.5445   9.5783   9.7133   9.7277   9.7515   9.8325
     9.9001  10.0845  10.1113  10.2045  10.2718  10.3116  10.3684  10.7347
    10.7612  10.8998  11.0710  11.1161  11.1699  11.6641  11.7555  11.8470
    11.8983  11.9340  12.0530  13.2198  13.2528  13.2671  13.3231  13.3472
    13.3869  13.5027  13.5063  13.5440  14.3765  14.6983  14.8232  14.8441
    15.0113  15.1141  15.2748  15.6744  15.8156  15.9552  16.0464  16.2441
    16.3780  16.4095  16.7060  17.1420  17.2071  17.2364  17.2576  17.5027
    17.5613  17.6582  17.7960  17.8084  20.8062  21.5599  21.7379  21.7810
    22.3910  22.5409  22.5715  22.6086  22.7789  23.0009  23.1484  23.3490
    23.4178  23.7157  23.8692  24.1648  24.2517  24.3324  24.3384  24.5133

     occupation numbers 
     1.0000   1.0000   1.0000   1.0000   1.0000   1.0000   1.0000   1.0000
     1.0000   1.0000   1.0000   1.0000   1.0000   1.0000   1.0000   1.0000
     1.0000   1.0000   1.0000   1.0000   1.0000   1.0000   1.0000   1.0000
     1.0000   1.0000   1.0000   1.0000   1.0000   1.0000   1.0000   1.0000
     1.0000   1.0000   1.0000   1.0000   1.0000   1.0000   1.0000   1.0000
     1.0000   1.0000   1.0000   1.0000   1.0000   1.0000   1.0000   1.0000
     1.0000   1.0000   1.0000   1.0000   1.0000   1.0000   1.0000   1.0000
     1.0000   1.0000   1.0000   1.0000   1.0000   1.0000   1.0000   1.0000
     1.0000   1.0000   1.0000   1.0000   1.0000   1.0000   1.0000   1.0000
     1.0000   1.0000   1.0000   1.0000   1.0000   1.0000   1.0000   1.0000
     1.0000   1.0000   1.0000   1.0000   1.0000   1.0000   1.0000   1.0000
     1.0000   1.0000   1.0000   1.0000   1.0000   1.0000   1.0000   1.0000
     1.0000   1.0000   1.0000   1.0000   1.0000   1.0000   1.0000   1.0000
     1.0000   1.0000   1.0000   1.0000   1.0000   1.0000   1.0000   1.0000
     1.0000   1.0000   1.0000   1.0000   1.0000   1.0000   1.0000   1.0000
     1.0000   1.0000   1.0000   1.0000   1.0000   1.0000   1.0000   1.0000
     1.0000   1.0000   1.0000   1.0000   1.0000   1.0000   1.0000   1.0000
     1.0000   1.0000   1.0000   1.0000   1.0000   1.0000   1.0000   1.0000
     1.0000   1.0000   1.0000   0.0687  -0.0054  -0.0222  -0.0323  -0.0248
    -0.0125  -0.0004  -0.0004  -0.0001  -0.0000  -0.0000  -0.0000  -0.0000
    -0.0000  -0.0000  -0.0000  -0.0000  -0.0000  -0.0000  -0.0000  -0.0000
    -0.0000  -0.0000  -0.0000  -0.0000  -0.0000  -0.0000  -0.0000  -0.0000
    -0.0000  -0.0000  -0.0000  -0.0000  -0.0000  -0.0000  -0.0000  -0.0000
    -0.0000  -0.0000  -0.0000  -0.0000  -0.0000  -0.0000  -0.0000  -0.0000
    -0.0000  -0.0000  -0.0000  -0.0000  -0.0000  -0.0000  -0.0000  -0.0000

          k = 0.0000 0.3904-0.2064 (  7218 PWs)   bands (ev):

   -77.9919 -77.9829 -77.9814 -73.3383 -73.3320 -73.3296 -43.9889 -43.9741
   -43.9738 -43.9722 -43.9705 -43.9702 -43.9690 -43.9686 -43.9660 -39.4819
   -39.4735 -39.4726 -39.4437 -39.4434 -39.4383 -39.4381 -39.4348 -39.4345
   -10.7176 -10.6911 -10.6879 -10.6721 -10.6697 -10.6535 -10.6438 -10.6369
   -10.6283 -10.6247 -10.6171 -10.6119 -10.6033 -10.6001 -10.5988 -10.5926
   -10.5825 -10.5812 -10.5792 -10.5778 -10.5729 -10.5720 -10.5683 -10.5634
   -10.5587 -10.5577 -10.5525 -10.5450 -10.5437 -10.5260  -6.9231  -6.9074
    -6.4104  -6.2541  -6.0910  -5.8082  -5.7907  -5.6669  -5.6244  -5.5012
    -5.4874  -5.4047  -5.3756  -5.3434  -5.3038  -5.2171  -5.2068  -5.1979
     1.5367   1.6871   1.7552   2.0325   2.3594   2.5026   5.7243   5.8954
     5.9633   5.9927   6.1354   6.2581   6.3316   6.3617   6.4918   6.5410
     6.5557   6.6297   6.8017   6.8225   6.9664   6.9869   7.0308   7.1541
     7.1965   7.3092   7.4595   7.4803   7.5264   7.9041   8.0123   8.1001
     8.1274   8.2228   8.2943   8.3517   8.4050   8.4424   8.4894   8.5004
     8.7879   8.9344   8.9383   8.9733   9.1213   9.1673   9.2477   9.3353
     9.3441   9.3825   9.4892   9.6142   9.6712   9.7400   9.7960   9.8948
     9.9203  10.0137  10.2092  10.2121  10.2293  10.2945  10.3314  10.6294
    10.8356  10.8580  11.0560  11.1085  11.2889  11.5890  11.7863  11.8605
    11.9011  11.9839  11.9993  13.2223  13.2579  13.2705  13.3030  13.3473
    13.4012  13.4958  13.5093  13.5333  14.4874  14.5601  14.7774  14.9330
    14.9402  15.1913  15.3503  15.6309  15.7378  15.7996  16.0378  16.2442
    16.5209  16.5623  16.8833  16.9870  17.0554  17.1929  17.2279  17.5209
    17.6224  17.6443  17.7452  17.8803  21.0509  21.0961  21.8147  22.0259
    22.1797  22.5304  22.5368  22.7890  22.8090  22.8524  23.2358  23.5348
    23.5604  23.6737  23.8245  23.8854  24.0233  24.3835  24.4235  24.5542

     occupation numbers 
     1.0000   1.0000   1.0000   1.0000   1.0000   1.0000   1.0000   1.0000
     1.0000   1.0000   1.0000   1.0000   1.0000   1.0000   1.0000   1.0000
     1.0000   1.0000   1.0000   1.0000   1.0000   1.0000   1.0000   1.0000
     1.0000   1.0000   1.0000   1.0000   1.0000   1.0000   1.0000   1.0000
     1.0000   1.0000   1.0000   1.0000   1.0000   1.0000   1.0000   1.0000
     1.0000   1.0000   1.0000   1.0000   1.0000   1.0000   1.0000   1.0000
     1.0000   1.0000   1.0000   1.0000   1.0000   1.0000   1.0000   1.0000
     1.0000   1.0000   1.0000   1.0000   1.0000   1.0000   1.0000   1.0000
     1.0000   1.0000   1.0000   1.0000   1.0000   1.0000   1.0000   1.0000
     1.0000   1.0000   1.0000   1.0000   1.0000   1.0000   1.0000   1.0000
     1.0000   1.0000   1.0000   1.0000   1.0000   1.0000   1.0000   1.0000
     1.0000   1.0000   1.0000   1.0000   1.0000   1.0000   1.0000   1.0000
     1.0000   1.0000   1.0000   1.0000   1.0000   1.0000   1.0000   1.0000
     1.0000   1.0000   1.0000   1.0000   1.0000   1.0000   1.0000   1.0000
     1.0000   1.0000   1.0000   1.0000   1.0000   1.0000   1.0000   1.0000
     1.0000   1.0000   1.0000   1.0000   1.0000   1.0000   1.0000   1.0000
     1.0000   1.0000   1.0000   1.0000   1.0000   1.0000   1.0000   1.0000
     1.0000   1.0000   1.0000   1.0000   1.0000   1.0000   1.0000   1.0000
     1.0000   1.0000   1.0000   0.0613  -0.0123  -0.0250  -0.0354  -0.0248
    -0.0091  -0.0006  -0.0003  -0.0001  -0.0000  -0.0000  -0.0000  -0.0000
    -0.0000  -0.0000  -0.0000  -0.0000  -0.0000  -0.0000  -0.0000  -0.0000
    -0.0000  -0.0000  -0.0000  -0.0000  -0.0000  -0.0000  -0.0000  -0.0000
    -0.0000  -0.0000  -0.0000  -0.0000  -0.0000  -0.0000  -0.0000  -0.0000
    -0.0000  -0.0000  -0.0000  -0.0000  -0.0000  -0.0000  -0.0000  -0.0000
    -0.0000  -0.0000  -0.0000  -0.0000  -0.0000  -0.0000  -0.0000  -0.0000

          k = 0.3381 0.5856 0.0000 (  7185 PWs)   bands (ev):

   -77.9918 -77.9828 -77.9814 -73.3383 -73.3319 -73.3296 -43.9888 -43.9732
   -43.9732 -43.9721 -43.9696 -43.9695 -43.9684 -43.9684 -43.9660 -39.4819
   -39.4735 -39.4725 -39.4429 -39.4429 -39.4376 -39.4376 -39.4342 -39.4341
   -10.6871 -10.6852 -10.6786 -10.6783 -10.6767 -10.6676 -10.6342 -10.6318
   -10.6315 -10.6121 -10.6092 -10.6062 -10.6025 -10.5990 -10.5938 -10.5902
   -10.5857 -10.5804 -10.5776 -10.5757 -10.5736 -10.5729 -10.5712 -10.5703
   -10.5587 -10.5586 -10.5527 -10.5524 -10.5520 -10.5478  -6.4246  -6.4184
    -6.4180  -6.3170  -6.3130  -6.3076  -5.7856  -5.7813  -5.7735  -5.4955
    -5.4924  -5.4900  -5.3795  -5.3759  -5.3734  -5.2021  -5.2006  -5.1953
     1.8488   1.8608   1.8632   1.9188   1.9326   1.9338   5.9233   5.9352
     5.9383   6.2701   6.2718   6.2760   6.4545   6.4572   6.4646   6.6614
     6.6618   6.6660   7.1008   7.1121   7.1203   7.3153   7.3185   7.3211
     7.4036   7.4043   7.4132   7.7135   7.7213   7.7227   7.9887   7.9948
     7.9955   8.0988   8.1055   8.1068   8.4301   8.4362   8.4368   8.7035
     8.7052   8.7081   9.0269   9.0334   9.0356   9.1390   9.1417   9.1495
     9.3694   9.3740   9.3844   9.6925   9.6933   9.6941   9.9763   9.9802
     9.9805  10.0740  10.0801  10.0926  10.2719  10.2753  10.2833  10.9064
    10.9251  10.9337  11.0679  11.0834  11.0978  11.5866  11.5940  11.5955
    11.8603  11.8617  11.8686  13.3202  13.3220  13.3244  13.4580  13.4591
    13.4636  13.5409  13.5432  13.5437  14.5130  14.5179  14.5256  14.9231
    14.9397  14.9422  15.3773  15.3811  15.3892  15.7227  15.7303  15.7505
    16.5129  16.5245  16.5271  16.7624  16.7860  16.8070  17.2459  17.2512
    17.2799  17.5587  17.5899  17.6012  21.9693  22.0213  22.0327  22.5916
    22.6119  22.6160  22.9316  22.9351  22.9540  23.3171  23.3396  23.3423
    23.6234  23.6276  23.6450  24.1213  24.1556  24.1575  24.4004  24.4114

     occupation numbers 
     1.0000   1.0000   1.0000   1.0000   1.0000   1.0000   1.0000   1.0000
     1.0000   1.0000   1.0000   1.0000   1.0000   1.0000   1.0000   1.0000
     1.0000   1.0000   1.0000   1.0000   1.0000   1.0000   1.0000   1.0000
     1.0000   1.0000   1.0000   1.0000   1.0000   1.0000   1.0000   1.0000
     1.0000   1.0000   1.0000   1.0000   1.0000   1.0000   1.0000   1.0000
     1.0000   1.0000   1.0000   1.0000   1.0000   1.0000   1.0000   1.0000
     1.0000   1.0000   1.0000   1.0000   1.0000   1.0000   1.0000   1.0000
     1.0000   1.0000   1.0000   1.0000   1.0000   1.0000   1.0000   1.0000
     1.0000   1.0000   1.0000   1.0000   1.0000   1.0000   1.0000   1.0000
     1.0000   1.0000   1.0000   1.0000   1.0000   1.0000   1.0000   1.0000
     1.0000   1.0000   1.0000   1.0000   1.0000   1.0000   1.0000   1.0000
     1.0000   1.0000   1.0000   1.0000   1.0000   1.0000   1.0000   1.0000
     1.0000   1.0000   1.0000   1.0000   1.0000   1.0000   1.0000   1.0000
     1.0000   1.0000   1.0000   1.0000   1.0000   1.0000   1.0000   1.0000
     1.0000   1.0000   1.0000   1.0000   1.0000   1.0000   1.0000   1.0000
     1.0000   1.0000   1.0000   1.0000   1.0000   1.0000   1.0000   1.0000
     1.0000   1.0000   1.0000   1.0000   1.0000   1.0000   1.0000   1.0000
     1.0000   1.0000   1.0000   1.0000   1.0000   1.0000   1.0000   1.0000
     1.0000   1.0000   1.0000  -0.0330  -0.0326  -0.0320  -0.0020  -0.0019
    -0.0017  -0.0001  -0.0001  -0.0001  -0.0000  -0.0000  -0.0000  -0.0000
    -0.0000  -0.0000  -0.0000  -0.0000  -0.0000  -0.0000  -0.0000  -0.0000
    -0.0000  -0.0000  -0.0000  -0.0000  -0.0000  -0.0000  -0.0000  -0.0000
    -0.0000  -0.0000  -0.0000  -0.0000  -0.0000  -0.0000  -0.0000  -0.0000
    -0.0000  -0.0000  -0.0000  -0.0000  -0.0000  -0.0000  -0.0000  -0.0000
    -0.0000  -0.0000  -0.0000  -0.0000  -0.0000  -0.0000  -0.0000  -0.0000

          k = 0.3381 0.5856-0.2064 (  7170 PWs)   bands (ev):

   -77.9918 -77.9828 -77.9814 -73.3383 -73.3320 -73.3296 -43.9886 -43.9734
   -43.9734 -43.9719 -43.9697 -43.9697 -43.9686 -43.9685 -43.9658 -39.4817
   -39.4733 -39.4724 -39.4431 -39.4431 -39.4378 -39.4378 -39.4343 -39.4343
   -10.6847 -10.6821 -10.6813 -10.6806 -10.6751 -10.6727 -10.6249 -10.6246
   -10.6239 -10.6218 -10.6211 -10.6205 -10.5946 -10.5926 -10.5886 -10.5877
   -10.5856 -10.5852 -10.5780 -10.5772 -10.5740 -10.5726 -10.5723 -10.5708
   -10.5565 -10.5564 -10.5545 -10.5535 -10.5505 -10.5496  -6.4017  -6.3962
    -6.3959  -6.3498  -6.3444  -6.3402  -5.7093  -5.7055  -5.7006  -5.6184
    -5.6140  -5.6103  -5.2800  -5.2774  -5.2752  -5.2447  -5.2422  -5.2379
     1.8820   1.8848   1.8933   1.8939   1.8991   1.9023   5.9200   5.9317
     5.9350   6.2708   6.2767   6.2819   6.5203   6.5283   6.5306   6.6405
     6.6449   6.6454   7.0753   7.0865   7.0868   7.2014   7.2021   7.2043
     7.4193   7.4211   7.4307   7.7988   7.7995   7.8037   7.8763   7.8822
     7.8863   8.2399   8.2411   8.2465   8.4748   8.4761   8.4769   8.7565
     8.7599   8.7642   8.8435   8.8536   8.8608   9.1795   9.1884   9.1941
     9.4168   9.4168   9.4195   9.6304   9.6375   9.6376   9.9884   9.9888
     9.9890  10.0938  10.0992  10.1037  10.2714  10.2735  10.2840  10.9232
    10.9420  10.9493  11.0525  11.0687  11.0840  11.5753  11.5828  11.5855
    11.8688  11.8691  11.8767  13.3261  13.3288  13.3314  13.4419  13.4422
    13.4450  13.5534  13.5538  13.5554  14.5408  14.5476  14.5579  14.9191
    14.9343  14.9354  15.4231  15.4280  15.4362  15.5435  15.5503  15.5616
    16.7498  16.7715  16.7755  16.7768  16.7949  16.7955  17.2959  17.3292
    17.3327  17.3434  17.3802  17.3837  21.9846  22.0390  22.0492  22.6216
    22.6546  22.6620  23.0651  23.0775  23.0849  23.1117  23.1306  23.1487
    23.7698  23.7876  23.7975  23.8535  23.8652  23.8789  24.6466  24.6574

     occupation numbers 
     1.0000   1.0000   1.0000   1.0000   1.0000   1.0000   1.0000   1.0000
     1.0000   1.0000   1.0000   1.0000   1.0000   1.0000   1.0000   1.0000
     1.0000   1.0000   1.0000   1.0000   1.0000   1.0000   1.0000   1.0000
     1.0000   1.0000   1.0000   1.0000   1.0000   1.0000   1.0000   1.0000
     1.0000   1.0000   1.0000   1.0000   1.0000   1.0000   1.0000   1.0000
     1.0000   1.0000   1.0000   1.0000   1.0000   1.0000   1.0000   1.0000
     1.0000   1.0000   1.0000   1.0000   1.0000   1.0000   1.0000   1.0000
     1.0000   1.0000   1.0000   1.0000   1.0000   1.0000   1.0000   1.0000
     1.0000   1.0000   1.0000   1.0000   1.0000   1.0000   1.0000   1.0000
     1.0000   1.0000   1.0000   1.0000   1.0000   1.0000   1.0000   1.0000
     1.0000   1.0000   1.0000   1.0000   1.0000   1.0000   1.0000   1.0000
     1.0000   1.0000   1.0000   1.0000   1.0000   1.0000   1.0000   1.0000
     1.0000   1.0000   1.0000   1.0000   1.0000   1.0000   1.0000   1.0000
     1.0000   1.0000   1.0000   1.0000   1.0000   1.0000   1.0000   1.0000
     1.0000   1.0000   1.0000   1.0000   1.0000   1.0000   1.0000   1.0000
     1.0000   1.0000   1.0000   1.0000   1.0000   1.0000   1.0000   1.0000
     1.0000   1.0000   1.0000   1.0000   1.0000   1.0000   1.0000   1.0000
     1.0000   1.0000   1.0000   1.0000   1.0000   1.0000   1.0000   1.0000
     1.0000   1.0000   1.0000  -0.0315  -0.0308  -0.0300  -0.0032  -0.0032
    -0.0029  -0.0001  -0.0001  -0.0001  -0.0000  -0.0000  -0.0000  -0.0000
    -0.0000  -0.0000  -0.0000  -0.0000  -0.0000  -0.0000  -0.0000  -0.0000
    -0.0000  -0.0000  -0.0000  -0.0000  -0.0000  -0.0000  -0.0000  -0.0000
    -0.0000  -0.0000  -0.0000  -0.0000  -0.0000  -0.0000  -0.0000  -0.0000
    -0.0000  -0.0000  -0.0000  -0.0000  -0.0000  -0.0000  -0.0000  -0.0000
    -0.0000  -0.0000  -0.0000  -0.0000  -0.0000  -0.0000  -0.0000  -0.0000

     the spin up/dw Fermi energies are    13.1343   13.1347 ev

!    total energy              =   -3195.01403700 Ry
     estimated scf accuracy    <       0.00000149 Ry
     smearing contrib. (-TS)   =       0.00363432 Ry
     internal energy E=F+TS    =   -3195.01767132 Ry

     The total energy is F=E-TS. E is the sum of the following terms:
     one-electron contribution =   -1266.29187180 Ry
     hartree contribution      =     826.12739424 Ry
     xc contribution           =    -695.44549811 Ry
     ewald contribution        =   -2059.40769566 Ry

     total magnetization       =     0.00 Bohr mag/cell
     absolute magnetization    =    24.59 Bohr mag/cell

     convergence has been achieved in  14 iterations

     negative rho (up, down):  1.214E-01 1.215E-01

     Forces acting on atoms (cartesian axes, Ry/au):

     atom    1 type  4   force =     0.00000000    0.00000000    0.00190158
     atom    2 type  3   force =     0.00000000   -0.00000000    0.00075585
     atom    3 type  3   force =     0.00000000    0.00000000    0.00468316
     atom    4 type  4   force =     0.00000000   -0.00000000    0.00452188
     atom    5 type  3   force =     0.00000000    0.00000000    0.00150620
     atom    6 type  4   force =     0.00000000    0.00000000    0.00042315
     atom    7 type  2   force =     0.00000000   -0.00000000    0.00204172
     atom    8 type  2   force =     0.00000000    0.00000000    0.00293216
     atom    9 type  2   force =     0.00000000    0.00000000    0.00231332
     atom   10 type  2   force =     0.00000000    0.00000000    0.00214268
     atom   11 type  2   force =     0.00000000    0.00000000    0.00198741
     atom   12 type  2   force =     0.00000000    0.00000000    0.00140591
     atom   13 type  1   force =    -0.00341973    0.00704709   -0.00181119
     atom   14 type  1   force =    -0.00439309   -0.00648512   -0.00181119
     atom   15 type  1   force =     0.00781282   -0.00056197   -0.00181119
     atom   16 type  1   force =     0.00545968   -0.00451365   -0.00143346
     atom   17 type  1   force =     0.00117910    0.00698505   -0.00143346
     atom   18 type  1   force =    -0.00663877   -0.00247140   -0.00143346
     atom   19 type  1   force =    -0.00121313    0.00705629   -0.00130583
     atom   20 type  1   force =    -0.00550436   -0.00457875   -0.00130583
     atom   21 type  1   force =     0.00671749   -0.00247754   -0.00130583
     atom   22 type  1   force =     0.00157384   -0.00628358   -0.00130285
     atom   23 type  1   force =     0.00465482    0.00450477   -0.00130285
     atom   24 type  1   force =    -0.00622866    0.00177881   -0.00130285
     atom   25 type  1   force =    -0.00472405    0.00451285   -0.00135013
     atom   26 type  1   force =    -0.00154621   -0.00634757   -0.00135013
     atom   27 type  1   force =     0.00627027    0.00183473   -0.00135013
     atom   28 type  1   force =     0.00442358   -0.00654206   -0.00166822
     atom   29 type  1   force =     0.00345380    0.00710196   -0.00166822
     atom   30 type  1   force =    -0.00787738   -0.00055990   -0.00166822
     The non-local contrib.  to forces
     atom    1 type  4   force =     0.00000000    0.00000000    0.16844509
     atom    2 type  3   force =     0.00000000   -0.00000000    0.16735327
     atom    3 type  3   force =     0.00000000   -0.00000000    0.17683043
     atom    4 type  4   force =     0.00000000    0.00000000    0.17677630
     atom    5 type  3   force =     0.00000000    0.00000000    0.16853647
     atom    6 type  4   force =     0.00000000    0.00000000    0.16763169
     atom    7 type  2   force =     0.00000000    0.00000000   -0.37989144
     atom    8 type  2   force =     0.00000000    0.00000000   -0.37438350
     atom    9 type  2   force =     0.00000000   -0.00000000   -0.37434246
     atom   10 type  2   force =     0.00000000    0.00000000   -0.38881831
     atom   11 type  2   force =     0.00000000   -0.00000000   -0.38832877
     atom   12 type  2   force =     0.00000000    0.00000000   -0.37936872
     atom   13 type  1   force =    -0.01221040    0.00884369    0.19172256
     atom   14 type  1   force =    -0.00155366   -0.01499636    0.19172256
     atom   15 type  1   force =     0.01376406    0.00615267    0.19172256
     atom   16 type  1   force =     0.00292124   -0.00547504    0.18601150
     atom   17 type  1   force =     0.00328090    0.00526739    0.18601150
     atom   18 type  1   force =    -0.00620214    0.00020765    0.18601150
     atom   19 type  1   force =    -0.00328905    0.00483899    0.18613026
     atom   20 type  1   force =    -0.00254616   -0.00526790    0.18613026
     atom   21 type  1   force =     0.00583522    0.00042891    0.18613026
     atom   22 type  1   force =    -0.00124582   -0.00856041    0.18827053
     atom   23 type  1   force =     0.00803644    0.00320130    0.18827053
     atom   24 type  1   force =    -0.00679062    0.00535911    0.18827053
     atom   25 type  1   force =    -0.00851761    0.00336462    0.18852274
     atom   26 type  1   force =     0.00134495   -0.00905878    0.18852274
     atom   27 type  1   force =     0.00717265    0.00569415    0.18852274
     atom   28 type  1   force =     0.00125873   -0.01515666    0.19179981
     atom   29 type  1   force =     0.01249669    0.00866842    0.19179981
     atom   30 type  1   force =    -0.01375541    0.00648824    0.19179981
     The ionic contribution  to forces
     atom    1 type  4   force =    -0.00001542    0.00000890   -4.02027686
     atom    2 type  3   force =     0.00013105   -0.00007566   -4.01691257
     atom    3 type  3   force =    -0.00011559    0.00006674   -3.54608606
     atom    4 type  4   force =    -0.00011557    0.00006672   -3.53653607
     atom    5 type  3   force =    -0.00001539    0.00000888   -4.05457245
     atom    6 type  4   force =     0.00013104   -0.00007566   -4.05046394
     atom    7 type  2   force =    -0.00006939    0.00004006    8.07955246
     atom    8 type  2   force =     0.00007475   -0.00004316    8.28629877
     atom    9 type  2   force =     0.00007471   -0.00004313    8.26106638
     atom   10 type  2   force =    -0.00000534    0.00000308    8.45006327
     atom   11 type  2   force =    -0.00000534    0.00000308    8.41597802
     atom   12 type  2   force =    -0.00006938    0.00004006    8.02321522
     atom   13 type  1   force =    -0.82002250   -1.64199671   -1.53027041
     atom   14 type  1   force =     1.83203274    0.11099583   -1.53017022
     atom   15 type  1   force =    -1.01207674    1.53103928   -1.53018841
     atom   16 type  1   force =    -1.83471651    0.12042299   -1.42494070
     atom   17 type  1   force =     0.81301328   -1.64906269   -1.42494427
     atom   18 type  1   force =     1.02174924    1.52861314   -1.42487325
     atom   19 type  1   force =    -0.81482033   -1.64294390   -1.43375497
     atom   20 type  1   force =     1.83018577    0.11570389   -1.43382603
     atom   21 type  1   force =    -1.01531946    1.52721347   -1.43382247
     atom   22 type  1   force =    -1.87088481    0.09578952   -1.41274952
     atom   23 type  1   force =     0.85253085   -1.66810825   -1.41276391
     atom   24 type  1   force =     1.01837440    1.57230693   -1.41273517
     atom   25 type  1   force =    -0.85193451   -1.66907127   -1.42251497
     atom   26 type  1   force =     1.87147000    0.09669483   -1.42254373
     atom   27 type  1   force =    -1.01951507    1.57236465   -1.42252935
     atom   28 type  1   force =    -1.82989175    0.11344695   -1.53954498
     atom   29 type  1   force =     0.81670856   -1.64153719   -1.53952681
     atom   30 type  1   force =     1.01311670    1.52812862   -1.53962701
     The local contribution  to forces
     atom    1 type  4   force =     0.00000000    0.00000000    3.85768833
     atom    2 type  3   force =     0.00146374   -0.00084509    3.85520634
     atom    3 type  3   force =    -0.00146379    0.00084512    3.37726496
     atom    4 type  4   force =    -0.00146378    0.00084512    3.36815707
     atom    5 type  3   force =    -0.00000000    0.00000000    3.89183625
     atom    6 type  4   force =     0.00146381   -0.00084513    3.88809409
     atom    7 type  2   force =    -0.00035732    0.00020630   -7.71563649
     atom    8 type  2   force =     0.00035734   -0.00020631   -7.92699716
     atom    9 type  2   force =     0.00035734   -0.00020631   -7.90183133
     atom   10 type  2   force =     0.00000000   -0.00000000   -8.07683923
     atom   11 type  2   force =    -0.00000000   -0.00000000   -8.04372822
     atom   12 type  2   force =    -0.00035730    0.00020629   -7.66023568
     atom   13 type  1   force =     0.82783325    1.64045453    1.33748051
     atom   14 type  1   force =    -1.83479207   -0.10303042    1.33742266
     atom   15 type  1   force =     1.00641883   -1.53711235    1.33743588
     atom   16 type  1   force =     1.83718152   -0.11978210    1.23843241
     atom   17 type  1   force =    -0.81465650    1.65058599    1.23844592
     atom   18 type  1   force =    -1.02198506   -1.53111564    1.23838814
     atom   19 type  1   force =     0.81673544    1.64496317    1.24736325
     atom   20 type  1   force =    -1.83274773   -0.11544057    1.24742105
     atom   21 type  1   force =     1.01655226   -1.52983436    1.24740754
     atom   22 type  1   force =     1.87359039   -0.09373880    1.22420595
     atom   23 type  1   force =    -0.85561501    1.66944627    1.22420595
     atom   24 type  1   force =    -1.01797537   -1.57570747    1.22420595
     atom   25 type  1   force =     0.85529111    1.67039937    1.23338400
     atom   26 type  1   force =    -1.87425385   -0.09449586    1.23338400
     atom   27 type  1   force =     1.01896274   -1.57590351    1.23338400
     atom   28 type  1   force =     1.83268574   -0.10518287    1.34703799
     atom   29 type  1   force =    -0.82545196    1.64009511    1.34702479
     atom   30 type  1   force =    -1.00777375   -1.53460048    1.34708266
     The core correction contribution to forces
     atom    1 type  4   force =     0.00000000   -0.00000000   -0.00356696
     atom    2 type  3   force =     0.00000121   -0.00000070   -0.00357611
     atom    3 type  3   force =    -0.00000120    0.00000069   -0.00355836
     atom    4 type  4   force =    -0.00000120    0.00000069   -0.00360576
     atom    5 type  3   force =     0.00000000   -0.00000000   -0.00352332
     atom    6 type  4   force =     0.00000121   -0.00000070   -0.00359348
     atom    7 type  2   force =    -0.00001396    0.00000806    0.01786399
     atom    8 type  2   force =     0.00001395   -0.00000806    0.01766023
     atom    9 type  2   force =     0.00001395   -0.00000806    0.01767848
     atom   10 type  2   force =    -0.00000000    0.00000000    0.01801245
     atom   11 type  2   force =    -0.00000000    0.00000000    0.01803278
     atom   12 type  2   force =    -0.00001396    0.00000806    0.01786206
     atom   13 type  1   force =     0.00008248   -0.00018664   -0.00088111
     atom   14 type  1   force =     0.00012002    0.00016552   -0.00088108
     atom   15 type  1   force =    -0.00020377    0.00002185   -0.00088112
     atom   16 type  1   force =    -0.00014293    0.00009545   -0.00085501
     atom   17 type  1   force =    -0.00001083   -0.00017221   -0.00085504
     atom   18 type  1   force =     0.00015503    0.00007603   -0.00085501
     atom   19 type  1   force =     0.00001257   -0.00017096   -0.00085705
     atom   20 type  1   force =     0.00014214    0.00009560   -0.00085708
     atom   21 type  1   force =    -0.00015344    0.00007462   -0.00085704
     atom   22 type  1   force =    -0.00007710    0.00013138   -0.00086077
     atom   23 type  1   force =    -0.00007523   -0.00013246   -0.00086077
     atom   24 type  1   force =     0.00015233    0.00000108   -0.00086077
     atom   25 type  1   force =     0.00007838   -0.00013334   -0.00086128
     atom   26 type  1   force =     0.00007629    0.00013455   -0.00086128
     atom   27 type  1   force =    -0.00015467   -0.00000121   -0.00086128
     atom   28 type  1   force =    -0.00011972    0.00016601   -0.00088348
     atom   29 type  1   force =    -0.00008428   -0.00018599   -0.00088344
     atom   30 type  1   force =     0.00020273    0.00002071   -0.00088347
     The Hubbard contrib.    to forces
     atom    1 type  4   force =     0.00000000    0.00000000    0.00000000
     atom    2 type  3   force =     0.00000000    0.00000000    0.00000000
     atom    3 type  3   force =     0.00000000    0.00000000    0.00000000
     atom    4 type  4   force =     0.00000000    0.00000000    0.00000000
     atom    5 type  3   force =     0.00000000    0.00000000    0.00000000
     atom    6 type  4   force =     0.00000000    0.00000000    0.00000000
     atom    7 type  2   force =     0.00000000    0.00000000    0.00000000
     atom    8 type  2   force =     0.00000000    0.00000000    0.00000000
     atom    9 type  2   force =     0.00000000    0.00000000    0.00000000
     atom   10 type  2   force =     0.00000000    0.00000000    0.00000000
     atom   11 type  2   force =     0.00000000    0.00000000    0.00000000
     atom   12 type  2   force =     0.00000000    0.00000000    0.00000000
     atom   13 type  1   force =     0.00000000    0.00000000    0.00000000
     atom   14 type  1   force =     0.00000000    0.00000000    0.00000000
     atom   15 type  1   force =     0.00000000    0.00000000    0.00000000
     atom   16 type  1   force =     0.00000000    0.00000000    0.00000000
     atom   17 type  1   force =     0.00000000    0.00000000    0.00000000
     atom   18 type  1   force =     0.00000000    0.00000000    0.00000000
     atom   19 type  1   force =     0.00000000    0.00000000    0.00000000
     atom   20 type  1   force =     0.00000000    0.00000000    0.00000000
     atom   21 type  1   force =     0.00000000    0.00000000    0.00000000
     atom   22 type  1   force =     0.00000000    0.00000000    0.00000000
     atom   23 type  1   force =     0.00000000    0.00000000    0.00000000
     atom   24 type  1   force =     0.00000000    0.00000000    0.00000000
     atom   25 type  1   force =     0.00000000    0.00000000    0.00000000
     atom   26 type  1   force =     0.00000000    0.00000000    0.00000000
     atom   27 type  1   force =     0.00000000    0.00000000    0.00000000
     atom   28 type  1   force =     0.00000000    0.00000000    0.00000000
     atom   29 type  1   force =     0.00000000    0.00000000    0.00000000
     atom   30 type  1   force =     0.00000000    0.00000000    0.00000000
     The SCF correction term to forces
     atom    1 type  4   force =    -0.00000002    0.00000001   -0.00049442
     atom    2 type  3   force =     0.00000026   -0.00000015   -0.00142148
[...]
     atom   21 type  1   force =    -0.00004010    0.00002077   -0.00084824
     atom   22 type  1   force =    -0.00003544    0.00003211   -0.00086135
     atom   23 type  1   force =    -0.00001009   -0.00004674   -0.00086135
     atom   24 type  1   force =     0.00004553    0.00001463   -0.00086135
     atom   25 type  1   force =     0.00000958   -0.00004653   -0.00086106
     atom   26 type  1   force =     0.00003550    0.00003156   -0.00086106
     atom   27 type  1   force =    -0.00004508    0.00001497   -0.00086106
     atom   28 type  1   force =    -0.00003498    0.00002489   -0.00085723
     atom   29 type  1   force =    -0.00000444   -0.00004204   -0.00085719
     atom   30 type  1   force =     0.00003816    0.00001788   -0.00085722
     The Hubbard contrib.    to forces
     atom    1 type  4   force =     0.00000000    0.00000000    0.00000000
     atom    2 type  3   force =     0.00000000    0.00000000    0.00000000
     atom    3 type  3   force =     0.00000000    0.00000000    0.00000000
     atom    4 type  4   force =     0.00000000    0.00000000    0.00000000
     atom    5 type  3   force =     0.00000000    0.00000000    0.00000000
     atom    6 type  4   force =     0.00000000    0.00000000    0.00000000
     atom    7 type  2   force =     0.00000000    0.00000000    0.00000000
     atom    8 type  2   force =     0.00000000    0.00000000    0.00000000
     atom    9 type  2   force =     0.00000000    0.00000000    0.00000000
     atom   10 type  2   force =     0.00000000    0.00000000    0.00000000
     atom   11 type  2   force =     0.00000000    0.00000000    0.00000000
     atom   12 type  2   force =     0.00000000    0.00000000    0.00000000
     atom   13 type  1   force =     0.00000000    0.00000000    0.00000000
     atom   14 type  1   force =     0.00000000    0.00000000    0.00000000
     atom   15 type  1   force =     0.00000000    0.00000000    0.00000000
     atom   16 type  1   force =     0.00000000    0.00000000    0.00000000
     atom   17 type  1   force =     0.00000000    0.00000000    0.00000000
     atom   18 type  1   force =     0.00000000    0.00000000    0.00000000
     atom   19 type  1   force =     0.00000000    0.00000000    0.00000000
     atom   20 type  1   force =     0.00000000    0.00000000    0.00000000
     atom   21 type  1   force =     0.00000000    0.00000000    0.00000000
     atom   22 type  1   force =     0.00000000    0.00000000    0.00000000
     atom   23 type  1   force =     0.00000000    0.00000000    0.00000000
     atom   24 type  1   force =     0.00000000    0.00000000    0.00000000
     atom   25 type  1   force =     0.00000000    0.00000000    0.00000000
     atom   26 type  1   force =     0.00000000    0.00000000    0.00000000
     atom   27 type  1   force =     0.00000000    0.00000000    0.00000000
     atom   28 type  1   force =     0.00000000    0.00000000    0.00000000
     atom   29 type  1   force =     0.00000000    0.00000000    0.00000000
     atom   30 type  1   force =     0.00000000    0.00000000    0.00000000
     The SCF correction term to forces
     atom    1 type  4   force =     0.00000000   -0.00000000   -0.00017106
     atom    2 type  3   force =    -0.00000003    0.00000002   -0.00009578
     atom    3 type  3   force =     0.00000003   -0.00000002   -0.00030403
     atom    4 type  4   force =     0.00000002   -0.00000001   -0.00028170
     atom    5 type  3   force =     0.00000000   -0.00000000   -0.00019557
     atom    6 type  4   force =    -0.00000003    0.00000002   -0.00012461
     atom    7 type  2   force =     0.00000000   -0.00000000   -0.00003243
     atom    8 type  2   force =    -0.00000001    0.00000000   -0.00010335
     atom    9 type  2   force =    -0.00000001    0.00000000   -0.00011773
     atom   10 type  2   force =    -0.00000000    0.00000000   -0.00005311
     atom   11 type  2   force =    -0.00000000    0.00000000   -0.00008895
     atom   12 type  2   force =     0.00000000   -0.00000000   -0.00008322
     atom   13 type  1   force =     0.00002293    0.00004033    0.00008412
     atom   14 type  1   force =    -0.00004639   -0.00000032    0.00008412
     atom   15 type  1   force =     0.00002347   -0.00004002    0.00008412
     atom   16 type  1   force =     0.00006039   -0.00001661    0.00005967
     atom   17 type  1   force =    -0.00001581    0.00006061    0.00005967
     atom   18 type  1   force =    -0.00004458   -0.00004399    0.00005968
     atom   19 type  1   force =     0.00000585    0.00007202    0.00003650
     atom   20 type  1   force =    -0.00006530   -0.00003094    0.00003650
     atom   21 type  1   force =     0.00005945   -0.00004108    0.00003650
     atom   22 type  1   force =     0.00005702   -0.00000122    0.00007423
     atom   23 type  1   force =    -0.00002746    0.00004998    0.00007423
     atom   24 type  1   force =    -0.00002956   -0.00004877    0.00007423
     atom   25 type  1   force =     0.00000667    0.00005493    0.00005284
     atom   26 type  1   force =    -0.00005091   -0.00002168    0.00005284
     atom   27 type  1   force =     0.00004424   -0.00003325    0.00005284
     atom   28 type  1   force =     0.00004519   -0.00001209    0.00005564
     atom   29 type  1   force =    -0.00001212    0.00004518    0.00005564
     atom   30 type  1   force =    -0.00003307   -0.00003309    0.00005564

     Total force =     0.004115     Total SCF correction =     0.000661
     SCF correction compared to forces is large: reduce conv_thr to get better values


     Computing stress (Cartesian axis) and pressure


     negative rho (up, down):  1.207E-01 1.207E-01
          total   stress  (Ry/bohr**3)                   (kbar)     P=       -1.53
  -0.00000953  -0.00000000   0.00000000           -1.40       -0.00        0.00
   0.00000000  -0.00000953   0.00000000            0.00       -1.40        0.00
   0.00000000   0.00000000  -0.00001217            0.00        0.00       -1.79

     kinetic stress (kbar)  23760.18      0.00      0.00
                                0.00  23760.18     -0.00
                                0.00     -0.00  23749.85

     local   stress (kbar)  -6032.36     -0.00     -0.00
                               -0.00  -6032.36      0.00
                               -0.00      0.00  -2479.43

     nonloc. stress (kbar)  15681.60      0.00      0.00
                                0.00  15681.60      0.00
                                0.00      0.00  15686.45

     hartree stress (kbar)  17137.97      0.00      0.00
                                0.00  17137.97     -0.00
                                0.00     -0.00  15789.08

     exc-cor stress (kbar)   9308.34      0.00      0.00
                                0.00   9308.34     -0.00
                                0.00     -0.00   9303.89

     corecor stress (kbar) -18760.52     -0.00     -0.00
                               -0.00 -18760.52      0.00
                               -0.00      0.00 -18761.39

     ewald   stress (kbar) -41096.62      0.00      0.00
                                0.00 -41096.62     -0.00
                                0.00     -0.00 -43290.24

     hubbard stress (kbar)      0.00      0.00      0.00
                                0.00      0.00      0.00
                                0.00      0.00      0.00

     DFT-D   stress (kbar)      0.00      0.00      0.00
                                0.00      0.00      0.00
                                0.00      0.00      0.00

     XDM     stress (kbar)      0.00      0.00      0.00
                                0.00      0.00      0.00
                                0.00      0.00      0.00

     dft-nl  stress (kbar)      0.00      0.00      0.00
                                0.00      0.00      0.00
                                0.00      0.00      0.00

     TS-vdW  stress (kbar)      0.00      0.00      0.00
                                0.00      0.00      0.00
                                0.00      0.00      0.00


     Energy error            =      5.6E-05
     Gradient error          =      9.2E-04
     Cell gradient error     =      1.2E-05


     number of scf cycles    =  11
     number of bfgs steps    =  10

     enthalpy old            =   -3195.0179705351 Ry
     enthalpy new            =   -3195.0180262853 Ry

     CASE: enthalpy_new < enthalpy_old

     new trust radius        =       0.0042013752 bohr
ibrav =      4
 celldm(1) =     10.43573394
 celldm(3) =      2.45853299
Input lattice vectors:
     0.98339552    -0.00000000     0.00000000
    -0.49169776     0.85164550     0.00000000
     0.00000000     0.00000000     2.41771033
New lattice vectors in INITIAL alat:
     0.98339552     0.00000000     0.00000000
    -0.49169776     0.85164550     0.00000000
     0.00000000     0.00000000     2.41771033
New lattice vectors in NEW alat (for information only):
     1.00000000     0.00000000     0.00000000
    -0.50000000     0.86602540     0.00000000
     0.00000000     0.00000000     2.45853299
Discrepancy in bohr =     0.000000    0.000000    0.000000
     new conv_thr            =       0.0000001000 Ry

     new unit-cell volume =   2419.77879 a.u.^3 (   358.57422 Ang^3 )
     density =      8.69202 g/cm^3

CELL_PARAMETERS (alat= 10.61193968)
   0.983395520   0.000000000   0.000000000
  -0.491697760   0.851645502   0.000000000
   0.000000000   0.000000000   2.417710326

ATOMIC_POSITIONS (crystal)
Fe2           0.0000000000        0.0000000000        0.7772495689
Fe1           0.3333330000        0.6666670000        0.9438955412
Fe1           0.6666670000        0.3333330000        0.6106147604
Fe2           0.6666670000        0.3333330000        0.1106303246
Fe1          -0.0000000000       -0.0000000000        0.2772682519
Fe2           0.3333330000        0.6666670000        0.4438932836
Bi            0.6666670000        0.3333330000        0.8404339885
Bi            0.3333330000        0.6666670000        0.6735998860
Bi            0.3333330000        0.6666670000        0.1735970766
Bi           -0.0000000000       -0.0000000000        0.0070036121
Bi           -0.0000000000       -0.0000000000        0.5070111491
Bi            0.6666670000        0.3333330000        0.3404372992
O             0.0832213918        0.7676167372        0.8795660106
O             0.2323832628        0.3156036547        0.8795660106
O             0.6843963453        0.9167786082        0.8795660106
O             0.7498970473        0.6489280827        0.7129225878
O             0.3510719173        0.1009699647        0.7129225878
O             0.8990300353        0.2501029527        0.7129225878
O             0.7498872201        0.1009626346        0.2129316419
O             0.8990373654        0.6489255855        0.2129316419
O             0.3510744145        0.2501127799        0.2129316419
O             0.4166234887        0.9823791204        0.0461954964
O             0.0176208796        0.4342443683        0.0461954964
O             0.5657556317        0.5833765113        0.0461954964
O             0.4166179309        0.4342516508        0.5461937639
O             0.5657483492        0.9823662801        0.5461937639
O             0.0176337199        0.5833820691        0.5461937639
O             0.0832079553        0.3155927144        0.3795749188
O             0.6844072856        0.7676142409        0.3795749188
O             0.2323857591        0.9167920447        0.3795749188



     Writing output data file /home/aldair1809/Documentos/QE/geom_opt_temp/bifeo3-relax.save/
     NEW-OLD atomic charge density approx. for the potential

     Check: negative core charge=   -0.000017

     negative rho (up, down):  1.206E-01 1.206E-01
     extrapolated charge  293.95032, renormalised to  294.00000
     Generating pointlists ...

     total cpu time spent up to now is    16252.8 secs

     Self-consistent Calculation

     iteration #  1     ecut=    30.00 Ry     beta= 0.20
     CG style diagonalization
     ethr =  1.00E-06,  avg # of iterations =  3.4

     Threshold (ethr) on eigenvalues was too large:
     Diagonalizing with lowered threshold

     CG style diagonalization
     c_bands:  3 eigenvalues not converged
     c_bands:  3 eigenvalues not converged
     c_bands:  5 eigenvalues not converged
     c_bands:  2 eigenvalues not converged
     c_bands:  3 eigenvalues not converged
     c_bands:  4 eigenvalues not converged
     c_bands:  3 eigenvalues not converged
     ethr =  4.96E-08,  avg # of iterations =  5.1

     negative rho (up, down):  1.207E-01 1.207E-01

     total cpu time spent up to now is    16727.7 secs

     total energy              =   -3195.01790664 Ry
     estimated scf accuracy    <       0.00029804 Ry

     total magnetization       =    -0.00 Bohr mag/cell
     absolute magnetization    =    24.45 Bohr mag/cell

     iteration #  2     ecut=    30.00 Ry     beta= 0.20
     CG style diagonalization
     ethr =  1.01E-07,  avg # of iterations =  3.5

     negative rho (up, down):  1.207E-01 1.207E-01

     total cpu time spent up to now is    16910.4 secs

     total energy              =   -3195.01804784 Ry
     estimated scf accuracy    <       0.00035935 Ry

     total magnetization       =    -0.00 Bohr mag/cell
     absolute magnetization    =    24.50 Bohr mag/cell

     iteration #  3     ecut=    30.00 Ry     beta= 0.20
     CG style diagonalization
     ethr =  1.01E-07,  avg # of iterations =  3.0

     negative rho (up, down):  1.207E-01 1.207E-01

     total cpu time spent up to now is    17070.6 secs

     total energy              =   -3195.01805951 Ry
     estimated scf accuracy    <       0.00006204 Ry

     total magnetization       =    -0.00 Bohr mag/cell
     absolute magnetization    =    24.48 Bohr mag/cell

     iteration #  4     ecut=    30.00 Ry     beta= 0.20
     CG style diagonalization
     ethr =  2.11E-08,  avg # of iterations =  3.0

     negative rho (up, down):  1.207E-01 1.207E-01

     total cpu time spent up to now is    17230.3 secs

     total energy              =   -3195.01805723 Ry
     estimated scf accuracy    <       0.00005923 Ry

     total magnetization       =    -0.00 Bohr mag/cell
     absolute magnetization    =    24.48 Bohr mag/cell

     iteration #  5     ecut=    30.00 Ry     beta= 0.20
     CG style diagonalization
     ethr =  2.01E-08,  avg # of iterations =  3.0

     negative rho (up, down):  1.207E-01 1.207E-01

     total cpu time spent up to now is    17389.2 secs

     total energy              =   -3195.01805903 Ry
     estimated scf accuracy    <       0.00000864 Ry

     total magnetization       =    -0.00 Bohr mag/cell
     absolute magnetization    =    24.47 Bohr mag/cell

     iteration #  6     ecut=    30.00 Ry     beta= 0.20
     CG style diagonalization
     ethr =  2.94E-09,  avg # of iterations =  3.0

     negative rho (up, down):  1.207E-01 1.206E-01

     total cpu time spent up to now is    17549.4 secs

     total energy              =   -3195.01805868 Ry
     estimated scf accuracy    <       0.00001547 Ry

     total magnetization       =     0.00 Bohr mag/cell
     absolute magnetization    =    24.47 Bohr mag/cell

     iteration #  7     ecut=    30.00 Ry     beta= 0.20
     CG style diagonalization
     ethr =  2.94E-09,  avg # of iterations =  3.1

     negative rho (up, down):  1.207E-01 1.206E-01

     total cpu time spent up to now is    17714.6 secs

     total energy              =   -3195.01805998 Ry
     estimated scf accuracy    <       0.00000145 Ry

     total magnetization       =    -0.00 Bohr mag/cell
     absolute magnetization    =    24.47 Bohr mag/cell

     iteration #  8     ecut=    30.00 Ry     beta= 0.20
     CG style diagonalization
     ethr =  4.92E-10,  avg # of iterations =  3.0

     negative rho (up, down):  1.206E-01 1.206E-01

     total cpu time spent up to now is    17874.5 secs

     total energy              =   -3195.01805998 Ry
     estimated scf accuracy    <       0.00000148 Ry

     total magnetization       =     0.00 Bohr mag/cell
     absolute magnetization    =    24.47 Bohr mag/cell

     iteration #  9     ecut=    30.00 Ry     beta= 0.20
     CG style diagonalization

     Maximum CPU time exceeded

     max_seconds     =   18000.00
     elapsed seconds =   18006.03
     Calculation stopped in k-point loop, point #    11
     Calculation stopped in scf loop at iteration #     8

     Writing output data file /home/aldair1809/Documentos/QE/geom_opt_temp/bifeo3-relax.save/

     init_run     :      7.41s CPU      7.97s WALL (       1 calls)
     electrons    :  16993.45s CPU  17236.51s WALL (       8 calls)
     update_pot   :     58.75s CPU     58.82s WALL (       7 calls)
     forces       :    275.12s CPU    278.40s WALL (       7 calls)
     stress       :    404.06s CPU    411.98s WALL (       7 calls)

     Called by init_run:
     wfcinit      :      0.10s CPU      0.10s WALL (       1 calls)
     potinit      :      0.27s CPU      0.41s WALL (       1 calls)
     hinit0       :      5.93s CPU      6.05s WALL (       1 calls)

     Called by electrons:
     c_bands      :  15682.38s CPU  15841.51s WALL (      94 calls)
     sum_band     :   1166.51s CPU   1216.54s WALL (      93 calls)
     v_of_rho     :     24.26s CPU     24.91s WALL (     100 calls)
     v_h          :      0.84s CPU      0.89s WALL (     100 calls)
     v_xc         :     26.61s CPU     27.31s WALL (     114 calls)
     newd         :    125.59s CPU    161.26s WALL (     100 calls)
     mix_rho      :      3.75s CPU      3.92s WALL (      93 calls)

     Called by c_bands:
     init_us_2    :     16.58s CPU     16.65s WALL (    2404 calls)
     ccgdiagg     :  12241.81s CPU  12369.35s WALL (    1146 calls)
     wfcrot       :   3424.11s CPU   3451.75s WALL (    1050 calls)

     Called by sum_band:
     sum_band:wei :      0.61s CPU      0.61s WALL (      93 calls)
     sum_band:loo :    949.77s CPU    964.30s WALL (      93 calls)
     sum_band:buf :      2.48s CPU      2.51s WALL (    1116 calls)
     sum_band:ini :      7.59s CPU      7.60s WALL (    1116 calls)
     sum_band:cal :    733.12s CPU    735.14s WALL (    1116 calls)
     sum_band:bec :      6.09s CPU      6.11s WALL (    1116 calls)
     addusdens    :    186.09s CPU    221.34s WALL (      93 calls)
     addusd:skk   :      0.58s CPU      0.63s WALL (     372 calls)
     addusd:dgemm :     94.99s CPU    124.58s WALL (     744 calls)
     addusd:qvan2 :     88.62s CPU     88.67s WALL (     744 calls)

     Called by *cgdiagg:
     h_psi        :   6324.16s CPU   6440.42s WALL (  567714 calls)
     s_psi        :   3897.26s CPU   3913.76s WALL ( 1134378 calls)

     Called by h_psi:
     h_psi:calbec :   2647.49s CPU   2676.75s WALL (  567714 calls)
     vloc_psi     :   1399.29s CPU   1479.31s WALL (  567714 calls)
     add_vuspsi   :   2261.63s CPU   2269.77s WALL (  567714 calls)
     hs_1psi      :   6338.76s CPU   6437.53s WALL (  566664 calls)
     s_1psi       :   3563.01s CPU   3581.80s WALL (  566664 calls)

     General routines
     calbec       :   5547.59s CPU   5593.82s WALL ( 1135914 calls)
     fft          :     26.97s CPU     28.11s WALL (    2773 calls)
     ffts         :      0.59s CPU      0.63s WALL (     386 calls)
     fftw         :   1430.01s CPU   1514.13s WALL ( 1776528 calls)
     interpolate  :      1.91s CPU      2.01s WALL (     200 calls)
     davcio       :      0.01s CPU      3.65s WALL (      40 calls)

     Parallel routines
     fft_scatt_xy :    159.57s CPU    169.51s WALL ( 1779687 calls)
     fft_scatt_yz :    527.00s CPU    565.47s WALL ( 1779687 calls)

     PWSCF        :      4h55m CPU      5h 0m WALL


   This run was terminated on:  22:59: 9   6Nov2024            

=------------------------------------------------------------------------------=
   JOB DONE.
=------------------------------------------------------------------------------=
