     Program PWSCF v.6.7MaX starts on  2Oct2024 at 19: 2:56 
     This program is part of the open-source Quantum ESPRESSO suite
     for quantum simulation of materials; please cite
         "P. Giannozzi et al., J. Phys.:Condens. Matter 21 395502 (2009);
         "P. Giannozzi et al., J. Phys.:Condens. Matter 29 465901 (2017);
          URL http://www.quantum-espresso.org", 
     in publications or presentations arising from this work. More details at
     http://www.quantum-espresso.org/quote
     Parallel version (MPI), running on     4 processors
     R & G space division:  proc/nbgrp/npool/nimage =       4
     Waiting for input...
     Reading input from standard input
     Current dimensions of program PWSCF are:
     Max number of different atomic species (ntypx) = 10
     Max number of k-points (npk) =  40000
     Max angular momentum in pseudopotentials (lmaxx) =  3
     Message from routine iosys:
     wrong startingpot: use default (1)
     Subspace diagonalization in iterative solution of the eigenvalue problem:
     one sub-group per band group will be used
     scalapack distributed-memory algorithm (size of sub-group:  2*  2 procs)
     Parallelization info
     Max         584     233     67                56968    14421    2235
     bravais-lattice index     =            4
     lattice parameter (alat)  =      10.6119  a.u.
     unit-cell volume          =    2595.2065 (a.u.)^3
     number of atoms/cell      =           30
     number of atomic types    =            4
     number of Kohn-Sham states=          200
     charge density cutoff     =     300.0000  Ry
     mixing beta               =       0.2000
     number of iterations used =            8  plain     mixing
     Exchange-correlation=  SLA  PW   PBX  PBC
     crystal axes: (cart. coord. in units of alat)
               a(1) = (   1.000000   0.000000   0.000000 )  
               a(2) = (  -0.500000   0.866025   0.000000 )  
               a(3) = (   0.000000   0.000000   2.507593 )  
     reciprocal axes: (cart. coord. in units 2 pi/alat)
     PseudoPot. # 1 for O  read from file:
     /home/aldair1809/Programas/QE/q-e-qe-7.3/pseudo/o_pbe_v1.2.uspp.F.UPF
     MD5 check sum: 734c27235a0248c51dbae37a1fbe46ec
     Pseudo is Ultrasoft + core correction, Zval =  6.0
     Generated by new atomic code, or converted to UPF format
     Using radial grid of  737 points,  5 beta functions with: 
     PseudoPot. # 2 for Bi read from file:
     /home/aldair1809/Programas/QE/q-e-qe-7.3/pseudo/bi_pbe_v1.uspp.F.UPF
     Pseudo is Ultrasoft + core correction, Zval = 15.0
     Generated by new atomic code, or converted to UPF format
     Using radial grid of  899 points,  6 beta functions with: 
     PseudoPot. # 3 for Fe read from file:
     /home/aldair1809/Programas/QE/q-e-qe-7.3/pseudo/fe_pbe_v1.5.uspp.F.UPF
     MD5 check sum: a130daea23fe5165f5d574ae7f82ed95
     Pseudo is Ultrasoft + core correction, Zval = 16.0
     Generated by new atomic code, or converted to UPF format
     Using radial grid of  861 points,  6 beta functions with: 
     PseudoPot. # 4 for Fe read from file:
     /home/aldair1809/Programas/QE/q-e-qe-7.3/pseudo/fe_pbe_v1.5.uspp.F.UPF
     MD5 check sum: a130daea23fe5165f5d574ae7f82ed95
     Pseudo is Ultrasoft + core correction, Zval = 16.0
     Generated by new atomic code, or converted to UPF format
     Using radial grid of  861 points,  6 beta functions with: 
     atomic species   valence    mass     pseudopotential
     Starting magnetic structure 
     atomic species   magnetization
                                    s                        frac. trans.
 cart.    s( 1) = (  1.0000000  0.0000000  0.0000000 )
      isym =  2     120 deg rotation - cryst. axis [0,0,1]       
 cart.    s( 2) = ( -0.5000000 -0.8660254  0.0000000 )
      isym =  3     120 deg rotation - cryst. axis [0,0,-1]      
 cart.    s( 3) = ( -0.5000000  0.8660254  0.0000000 )
     there are  3 classes
     the character table:
     imaginary part
     the symmetry operations in each class and the name of the first element:
          120 deg rotation - cryst. axis [0,0,1]                 
          120 deg rotation - cryst. axis [0,0,-1]                
   Cartesian axes
     site n.     atom                  positions (alat units)
         1           Fe1 tau(   1) = (   0.0000000   0.0000000   1.9478107  )
         2           Fe1 tau(   2) = (  -0.0000005   0.5773506   2.3729494  )
         3           Fe1 tau(   3) = (   0.5000005   0.2886748   1.5274126  )
         4           Fe2 tau(   4) = (   0.5000005   0.2886748   0.2735761  )
         5           Fe2 tau(   5) = (   0.0000000   0.0000000   0.6940396  )
         6           Fe2 tau(   6) = (  -0.0000005   0.5773506   1.1191187  )
         7           Bi  tau(   7) = (   0.5000005   0.2886748   2.0943705  )
         8           Bi  tau(   8) = (  -0.0000005   0.5773506   1.6794620  )
         9           Bi  tau(   9) = (  -0.0000005   0.5773506   0.4255883  )
        10           Bi  tau(  10) = (   0.0000000   0.0000000   0.0002835  )
        11           Bi  tau(  11) = (   0.0000000   0.0000000   1.2541243  )
        12           Bi  tau(  12) = (   0.5000005   0.2886748   0.8405223  )
        13           O   tau(  13) = (  -0.3105904   0.6551932   2.2117497  )
        14           O   tau(  14) = (   0.0878817   0.2694488   2.2117497  )
        15           O   tau(  15) = (   0.2227102   0.8074080   2.2117497  )
        16           O   tau(  16) = (   0.4087504   0.5589755   1.7932577  )
        17           O   tau(  17) = (   0.3115373   0.0745013   1.7932577  )
        18           O   tau(  18) = (   0.7797108   0.2325494   1.7932577  )
        19           O   tau(  19) = (   0.6884743   0.0745026   0.5394144  )
        20           O   tau(  20) = (   0.5912412   0.5589858   0.5394144  )
        21           O   tau(  21) = (   0.2202830   0.2325379   0.5394144  )
        22           O   tau(  22) = (  -0.0823010   0.8482993   0.1171819  )
        23           O   tau(  23) = (  -0.1934983   0.3706010   0.1171819  )
        24           O   tau(  24) = (   0.2757993   0.5131505   0.1171819  )
        25           O   tau(  25) = (   0.1934855   0.3705936   1.3710260  )
        26           O   tau(  26) = (   0.0823138   0.8482919   1.3710260  )
        27           O   tau(  27) = (  -0.2757993   0.5131653   1.3710260  )
        28           O   tau(  28) = (  -0.0878870   0.2694458   0.9579683  )
        29           O   tau(  29) = (   0.3105971   0.6551893   0.9579683  )
        30           O   tau(  30) = (  -0.2227086   0.8074149   0.9579683  )
   Crystallographic axes
     site n.     atom                  positions (cryst. coord.)
         1           Fe1 tau(   1) = (  0.0000000  0.0000000  0.7767652  )
         2           Fe1 tau(   2) = (  0.3333330  0.6666670  0.9463058  )
         3           Fe1 tau(   3) = (  0.6666670  0.3333330  0.6091152  )
         4           Fe2 tau(   4) = (  0.6666670  0.3333330  0.1090991  )
         5           Fe2 tau(   5) = (  0.0000000  0.0000000  0.2767753  )
         6           Fe2 tau(   6) = (  0.3333330  0.6666670  0.4462921  )
         7           Bi  tau(   7) = (  0.6666670  0.3333330  0.8352117  )
         8           Bi  tau(   8) = (  0.3333330  0.6666670  0.6697508  )
         9           Bi  tau(   9) = (  0.3333330  0.6666670  0.1697199  )
        10           Bi  tau(  10) = (  0.0000000  0.0000000  0.0001130  )
        11           Bi  tau(  11) = (  0.0000000  0.0000000  0.5001308  )
        12           Bi  tau(  12) = (  0.6666670  0.3333330  0.3351910  )
        13           O   tau(  13) = (  0.0676856  0.7565520  0.8820212  )
        14           O   tau(  14) = (  0.2434480  0.3111326  0.8820212  )
        15           O   tau(  15) = (  0.6888674  0.9323144  0.8820212  )
        16           O   tau(  16) = (  0.7314750  0.6454493  0.7151312  )
        17           O   tau(  17) = (  0.3545507  0.0860267  0.7151312  )
        18           O   tau(  18) = (  0.9139733  0.2685250  0.7151312  )
        19           O   tau(  19) = (  0.7314884  0.0860282  0.2151125  )
        20           O   tau(  20) = (  0.9139718  0.6454612  0.2151125  )
        21           O   tau(  21) = (  0.3545388  0.2685116  0.2151125  )
        22           O   tau(  22) = (  0.4074649  0.9795317  0.0467309  )
        23           O   tau(  23) = (  0.0204683  0.4279331  0.0467309  )
        24           O   tau(  24) = (  0.5720669  0.5925351  0.0467309  )
        25           O   tau(  25) = (  0.4074478  0.4279246  0.5467499  )
        26           O   tau(  26) = (  0.5720754  0.9795232  0.5467499  )
        27           O   tau(  27) = (  0.0204768  0.5925522  0.5467499  )
        28           O   tau(  28) = (  0.0676776  0.3111292  0.3820271  )
        29           O   tau(  29) = (  0.6888708  0.7565474  0.3820271  )
        30           O   tau(  30) = (  0.2434526  0.9323225  0.3820271  )
     number of k points=     6  Methfessel-Paxton smearing, width (Ry)=  0.0100
                       cart. coord. in units 2pi/alat
     Dynamical RAM for                 wfc:       5.49 MB
     Dynamical RAM for     wfc (w. buffer):      71.41 MB
     Dynamical RAM for           str. fact:       3.48 MB
     Dynamical RAM for           local pot:       0.00 MB
     Dynamical RAM for          nlocal pot:      12.36 MB
     Dynamical RAM for                qrad:      11.13 MB
     Dynamical RAM for          rho,v,vnew:      11.48 MB
     Dynamical RAM for               rhoin:       3.83 MB
     Dynamical RAM for            rho*nmix:      27.82 MB
     Dynamical RAM for           G-vectors:       3.37 MB
     Dynamical RAM for          h,s,v(r/c):       0.46 MB
     Dynamical RAM for          <psi|beta>:       1.37 MB
     Dynamical RAM for      wfcinit/wfcrot:      12.16 MB
     Dynamical RAM for           addusdens:     178.20 MB
     Dynamical RAM for          addusforce:     207.89 MB
     Dynamical RAM for         addusstress:     176.03 MB
     Estimated static dynamical RAM per process >     155.47 MB
     Estimated max dynamical RAM per process >     363.37 MB
     Estimated total dynamical RAM >       1.42 GB
     Check: negative core charge=   -0.000018
     Generating pointlists ...
     new r_m :   0.1459 (alat units)  1.5484 (a.u.) for type    1
     new r_m :   0.1691 (alat units)  1.7943 (a.u.) for type    2
     new r_m :   0.1459 (alat units)  1.5484 (a.u.) for type    3
     new r_m :   0.1459 (alat units)  1.5484 (a.u.) for type    4
     Initial potential from superposition of free atoms
     starting charge  281.99969, renormalised to  294.00000
     negative rho (up, down):  1.268E-01 1.268E-01
     Starting wfcs are  204 randomized atomic wfcs
     total cpu time spent up to now is       37.6 secs
     Self-consistent Calculation
     iteration #  1     ecut=    30.00 Ry     beta= 0.20
     CG style diagonalization
     ethr =  1.00E-02,  avg # of iterations =  2.6
     negative rho (up, down):  1.227E-01 1.227E-01
     total cpu time spent up to now is      144.3 secs
     total energy              =   -3189.13491440 Ry
     estimated scf accuracy    <      22.87192352 Ry
     total magnetization       =    -0.00 Bohr mag/cell
     absolute magnetization    =    30.58 Bohr mag/cell
     iteration #  2     ecut=    30.00 Ry     beta= 0.20
     CG style diagonalization
     ethr =  7.78E-03,  avg # of iterations =  3.0
     negative rho (up, down):  1.185E-01 1.185E-01
     total cpu time spent up to now is      276.7 secs
     total energy              =   -3191.96028230 Ry
     estimated scf accuracy    <       9.45498102 Ry
     total magnetization       =     0.00 Bohr mag/cell
     absolute magnetization    =    29.78 Bohr mag/cell
     iteration #  3     ecut=    30.00 Ry     beta= 0.20
     CG style diagonalization
     ethr =  3.22E-03,  avg # of iterations =  3.1
     negative rho (up, down):  1.193E-01 1.193E-01
     total cpu time spent up to now is      413.1 secs
     total energy              =   -3193.28397986 Ry
     estimated scf accuracy    <       4.58088450 Ry
     total magnetization       =    -0.00 Bohr mag/cell
     absolute magnetization    =    28.21 Bohr mag/cell
     iteration #  4     ecut=    30.00 Ry     beta= 0.20
     CG style diagonalization
     ethr =  1.56E-03,  avg # of iterations =  3.0
     negative rho (up, down):  1.176E-01 1.176E-01
     total cpu time spent up to now is      549.0 secs
     total energy              =   -3194.64809187 Ry
     estimated scf accuracy    <       1.98711765 Ry
     total magnetization       =     0.00 Bohr mag/cell
     absolute magnetization    =    29.03 Bohr mag/cell
     iteration #  5     ecut=    30.00 Ry     beta= 0.20
     CG style diagonalization
     ethr =  6.76E-04,  avg # of iterations =  3.2
     negative rho (up, down):  1.174E-01 1.174E-01
     total cpu time spent up to now is      691.8 secs
     total energy              =   -3194.70174473 Ry
     estimated scf accuracy    <       0.28922578 Ry
     total magnetization       =     0.00 Bohr mag/cell
     absolute magnetization    =    28.15 Bohr mag/cell
     iteration #  6     ecut=    30.00 Ry     beta= 0.20
     CG style diagonalization
     c_bands:  1 eigenvalues not converged
     c_bands:  1 eigenvalues not converged
     c_bands:  1 eigenvalues not converged
     ethr =  9.84E-05,  avg # of iterations =  3.9
     negative rho (up, down):  1.177E-01 1.177E-01
     total cpu time spent up to now is      866.0 secs
     total energy              =   -3194.43554099 Ry
     estimated scf accuracy    <       3.30447094 Ry
     total magnetization       =     0.00 Bohr mag/cell
     absolute magnetization    =    24.49 Bohr mag/cell
     iteration #  7     ecut=    30.00 Ry     beta= 0.20
     CG style diagonalization
     ethr =  9.84E-05,  avg # of iterations =  3.6
     negative rho (up, down):  1.182E-01 1.182E-01
     total cpu time spent up to now is     1023.4 secs
     total energy              =   -3194.84675764 Ry
     estimated scf accuracy    <       0.14049814 Ry
     total magnetization       =    -0.00 Bohr mag/cell
     absolute magnetization    =    27.85 Bohr mag/cell
     iteration #  8     ecut=    30.00 Ry     beta= 0.20
     CG style diagonalization
     c_bands:  1 eigenvalues not converged
     c_bands:  1 eigenvalues not converged
     ethr =  4.78E-05,  avg # of iterations =  3.1
     negative rho (up, down):  1.184E-01 1.184E-01
     total cpu time spent up to now is     1160.1 secs
     total energy              =   -3194.84584120 Ry
     estimated scf accuracy    <       0.19015637 Ry
     total magnetization       =    -0.00 Bohr mag/cell
     absolute magnetization    =    27.89 Bohr mag/cell
     iteration #  9     ecut=    30.00 Ry     beta= 0.20
     CG style diagonalization
     ethr =  4.78E-05,  avg # of iterations =  3.0
     negative rho (up, down):  1.186E-01 1.186E-01
     total cpu time spent up to now is     1293.4 secs
     total energy              =   -3194.82691467 Ry
     estimated scf accuracy    <       0.14778705 Ry
     total magnetization       =    -0.00 Bohr mag/cell
     absolute magnetization    =    27.85 Bohr mag/cell
     iteration # 10     ecut=    30.00 Ry     beta= 0.20
     CG style diagonalization
     ethr =  4.78E-05,  avg # of iterations =  3.0
     negative rho (up, down):  1.188E-01 1.188E-01
     total cpu time spent up to now is     1426.4 secs
     total energy              =   -3194.82060482 Ry
     estimated scf accuracy    <       0.04343533 Ry
     total magnetization       =     0.00 Bohr mag/cell
     absolute magnetization    =    27.75 Bohr mag/cell
     iteration # 11     ecut=    30.00 Ry     beta= 0.20
     CG style diagonalization
     c_bands:  1 eigenvalues not converged
     c_bands:  1 eigenvalues not converged
     ethr =  1.48E-05,  avg # of iterations =  3.1
     negative rho (up, down):  1.187E-01 1.187E-01
     total cpu time spent up to now is     1565.4 secs
     total energy              =   -3194.82529496 Ry
     estimated scf accuracy    <       0.00176711 Ry
     total magnetization       =    -0.00 Bohr mag/cell
     absolute magnetization    =    27.67 Bohr mag/cell
     iteration # 12     ecut=    30.00 Ry     beta= 0.20
     CG style diagonalization
     c_bands:  3 eigenvalues not converged
     c_bands:  1 eigenvalues not converged
     c_bands:  1 eigenvalues not converged
     c_bands:  1 eigenvalues not converged
     c_bands:  3 eigenvalues not converged
     c_bands:  1 eigenvalues not converged
     c_bands:  1 eigenvalues not converged
     c_bands:  1 eigenvalues not converged
     ethr =  6.01E-07,  avg # of iterations =  3.7
     negative rho (up, down):  1.186E-01 1.186E-01
     total cpu time spent up to now is     1731.5 secs
     total energy              =   -3194.82602504 Ry
     estimated scf accuracy    <       0.00088848 Ry
     total magnetization       =     0.00 Bohr mag/cell
     absolute magnetization    =    27.66 Bohr mag/cell
     iteration # 13     ecut=    30.00 Ry     beta= 0.20
     CG style diagonalization
     c_bands:  2 eigenvalues not converged
     c_bands:  1 eigenvalues not converged
     c_bands:  1 eigenvalues not converged
     c_bands:  1 eigenvalues not converged
     c_bands:  1 eigenvalues not converged
     ethr =  3.02E-07,  avg # of iterations =  3.1
     negative rho (up, down):  1.186E-01 1.186E-01
     total cpu time spent up to now is     1869.4 secs
     total energy              =   -3194.82636868 Ry
     estimated scf accuracy    <       0.00027713 Ry
     total magnetization       =    -0.00 Bohr mag/cell
     absolute magnetization    =    27.67 Bohr mag/cell
     iteration # 14     ecut=    30.00 Ry     beta= 0.20
     CG style diagonalization
     ethr =  9.43E-08,  avg # of iterations =  3.4
     negative rho (up, down):  1.186E-01 1.186E-01
     total cpu time spent up to now is     2020.3 secs
     total energy              =   -3194.82649190 Ry
     estimated scf accuracy    <       0.00007463 Ry
     total magnetization       =     0.00 Bohr mag/cell
     absolute magnetization    =    27.70 Bohr mag/cell
     iteration # 15     ecut=    30.00 Ry     beta= 0.20
     CG style diagonalization
     ethr =  2.54E-08,  avg # of iterations =  3.1
     negative rho (up, down):  1.186E-01 1.186E-01
     total cpu time spent up to now is     2155.6 secs
     total energy              =   -3194.82654452 Ry
     estimated scf accuracy    <       0.00004303 Ry
     total magnetization       =    -0.00 Bohr mag/cell
     absolute magnetization    =    27.71 Bohr mag/cell
     iteration # 16     ecut=    30.00 Ry     beta= 0.20
     CG style diagonalization
     ethr =  1.46E-08,  avg # of iterations =  3.4
     negative rho (up, down):  1.186E-01 1.186E-01
     total cpu time spent up to now is     2304.3 secs
     total energy              =   -3194.82658093 Ry
     estimated scf accuracy    <       0.00002367 Ry
     total magnetization       =    -0.00 Bohr mag/cell
     absolute magnetization    =    27.72 Bohr mag/cell
     iteration # 17     ecut=    30.00 Ry     beta= 0.20
     CG style diagonalization
     ethr =  8.05E-09,  avg # of iterations =  3.3
     negative rho (up, down):  1.186E-01 1.186E-01
     Magnetic moment per site:
     atom:    1    charge:   13.0313    magn:   -3.7355    constr:    0.0000
     atom:    2    charge:   13.0386    magn:   -3.6260    constr:    0.0000
     atom:    3    charge:   13.0508    magn:   -3.6166    constr:    0.0000
     atom:    4    charge:   13.0503    magn:    3.6169    constr:    0.0000
     atom:    5    charge:   13.0313    magn:    3.7354    constr:    0.0000
     atom:    6    charge:   13.0394    magn:    3.6254    constr:    0.0000
     atom:    7    charge:   10.5542    magn:   -0.0146    constr:    0.0000
     atom:    8    charge:   10.5539    magn:   -0.0117    constr:    0.0000
     atom:    9    charge:   10.5539    magn:    0.0117    constr:    0.0000
     atom:   10    charge:   10.5533    magn:   -0.0031    constr:    0.0000
     atom:   11    charge:   10.5533    magn:    0.0031    constr:    0.0000
     atom:   12    charge:   10.5542    magn:    0.0146    constr:    0.0000
     atom:   13    charge:    5.4121    magn:   -0.2163    constr:    0.0000
     atom:   14    charge:    5.4121    magn:   -0.2163    constr:    0.0000
     atom:   15    charge:    5.4121    magn:   -0.2163    constr:    0.0000
     atom:   16    charge:    5.4107    magn:   -0.2294    constr:    0.0000
     atom:   17    charge:    5.4107    magn:   -0.2294    constr:    0.0000
     atom:   18    charge:    5.4107    magn:   -0.2294    constr:    0.0000
     atom:   19    charge:    5.4105    magn:    0.2294    constr:    0.0000
     atom:   20    charge:    5.4105    magn:    0.2294    constr:    0.0000
     atom:   21    charge:    5.4105    magn:    0.2294    constr:    0.0000
     atom:   22    charge:    5.4025    magn:    0.0739    constr:    0.0000
     atom:   23    charge:    5.4025    magn:    0.0739    constr:    0.0000
     atom:   24    charge:    5.4025    magn:    0.0739    constr:    0.0000
     atom:   25    charge:    5.4024    magn:   -0.0739    constr:    0.0000
     atom:   26    charge:    5.4024    magn:   -0.0739    constr:    0.0000
     atom:   27    charge:    5.4024    magn:   -0.0739    constr:    0.0000
     atom:   28    charge:    5.4120    magn:    0.2165    constr:    0.0000
     atom:   29    charge:    5.4120    magn:    0.2165    constr:    0.0000
     atom:   30    charge:    5.4120    magn:    0.2165    constr:    0.0000
     total cpu time spent up to now is     2448.5 secs
     End of self-consistent calculation
          k = 0.0000 0.0000 0.0000 (  7259 PWs)   bands (ev):
     occupation numbers 
          k = 0.0000 0.0000-0.1994 (  7198 PWs)   bands (ev):
     occupation numbers 
          k = 0.0000 0.3849 0.0000 (  7204 PWs)   bands (ev):
     occupation numbers 
          k = 0.0000 0.3849-0.1994 (  7218 PWs)   bands (ev):
     occupation numbers 
          k = 0.3333 0.5774 0.0000 (  7185 PWs)   bands (ev):
     occupation numbers 
          k = 0.3333 0.5774-0.1994 (  7170 PWs)   bands (ev):
     occupation numbers 
          k = 0.0000 0.0000 0.0000 (  7259 PWs)   bands (ev):
     occupation numbers 
          k = 0.0000 0.0000-0.1994 (  7198 PWs)   bands (ev):
     occupation numbers 
          k = 0.0000 0.3849 0.0000 (  7204 PWs)   bands (ev):
     occupation numbers 
          k = 0.0000 0.3849-0.1994 (  7218 PWs)   bands (ev):
     occupation numbers 
          k = 0.3333 0.5774 0.0000 (  7185 PWs)   bands (ev):
     occupation numbers 
          k = 0.3333 0.5774-0.1994 (  7170 PWs)   bands (ev):
     occupation numbers 
     the spin up/dw Fermi energies are    11.6199   11.6193 ev
!    total energy              =   -3194.82663348 Ry
     estimated scf accuracy    <       0.00000431 Ry
     smearing contrib. (-TS)   =       0.00201071 Ry
     internal energy E=F+TS    =   -3194.82864419 Ry
     The total energy is F=E-TS. E is the sum of the following terms:
     hartree contribution      =     850.93500300 Ry
     ewald contribution        =   -2011.85787286 Ry
     total magnetization       =    -0.00 Bohr mag/cell
     absolute magnetization    =    27.72 Bohr mag/cell
     convergence has been achieved in  17 iterations
     negative rho (up, down):  1.186E-01 1.186E-01
     Forces acting on atoms (cartesian axes, Ry/au):
     atom    1 type  3   force =     0.00000000    0.00000000   -0.00457298
     atom    2 type  3   force =     0.00000000    0.00000000    0.00610214
     atom    3 type  3   force =     0.00000000    0.00000000   -0.01402165
     atom    4 type  4   force =     0.00000000   -0.00000000   -0.01444097
     atom    5 type  4   force =     0.00000000    0.00000000   -0.00550294
     atom    6 type  4   force =     0.00000000    0.00000000    0.00579873
     atom    7 type  2   force =     0.00000000   -0.00000000    0.00226381
     atom    8 type  2   force =     0.00000000    0.00000000   -0.00141513
     atom    9 type  2   force =     0.00000000    0.00000000   -0.00321987
     atom   10 type  2   force =     0.00000000    0.00000000    0.00080411
     atom   11 type  2   force =     0.00000000   -0.00000000    0.00074514
     atom   12 type  2   force =     0.00000000   -0.00000000    0.00035633
     atom   13 type  1   force =     0.01454612    0.00195468    0.00065447
     atom   14 type  1   force =    -0.00896587    0.01161997    0.00065447
     atom   15 type  1   force =    -0.00558026   -0.01357465    0.00065447
     atom   16 type  1   force =     0.01072714    0.01238647    0.00134261
     atom   17 type  1   force =    -0.01609057    0.00309674    0.00134261
     atom   18 type  1   force =     0.00536343   -0.01548322    0.00134261
     atom   19 type  1   force =     0.01608860    0.00312151    0.00126391
     atom   20 type  1   force =    -0.01074761    0.01237238    0.00126391
     atom   21 type  1   force =    -0.00534099   -0.01549389    0.00126391
     atom   22 type  1   force =     0.00792816    0.01382277    0.00264027
     atom   23 type  1   force =    -0.01593495   -0.00004540    0.00264027
     atom   24 type  1   force =     0.00800679   -0.01377738    0.00264027
     atom   25 type  1   force =     0.01595506   -0.00008881    0.00264235
     atom   26 type  1   force =    -0.00790062    0.01386189    0.00264235
     atom   27 type  1   force =    -0.00805444   -0.01377309    0.00264235
     atom   28 type  1   force =     0.00896118    0.01158014    0.00049083
     atom   29 type  1   force =    -0.01450929    0.00197054    0.00049083
     atom   30 type  1   force =     0.00554811   -0.01355068    0.00049083
     The non-local contrib.  to forces
     atom    1 type  3   force =     0.00000000    0.00000000    0.10567821
     atom    2 type  3   force =     0.00000000    0.00000000    0.13043659
     atom    3 type  3   force =     0.00000000    0.00000000    0.10103164
     atom    4 type  4   force =     0.00000000    0.00000000    0.10057656
     atom    5 type  4   force =     0.00000000    0.00000000    0.10492719
     atom    6 type  4   force =     0.00000000    0.00000000    0.13016473
     atom    7 type  2   force =     0.00000000    0.00000000   -0.37010475
     atom    8 type  2   force =     0.00000000    0.00000000   -0.33570525
     atom    9 type  2   force =     0.00000000   -0.00000000   -0.33787505
     atom   10 type  2   force =     0.00000000    0.00000000   -0.41310764
     atom   11 type  2   force =     0.00000000    0.00000000   -0.41294913
     atom   12 type  2   force =    -0.00000000   -0.00000000   -0.37207966
     atom   13 type  1   force =    -0.00549038    0.03489790    0.20802799
     atom   14 type  1   force =    -0.02747728   -0.02220376    0.20802799
     atom   15 type  1   force =     0.03296766   -0.01269414    0.20802799
     atom   16 type  1   force =     0.01797929    0.02192998    0.18429500
     atom   17 type  1   force =    -0.02798157    0.00460553    0.18429500
     atom   18 type  1   force =     0.01000228   -0.02653551    0.18429500
     atom   19 type  1   force =     0.02784113    0.00470306    0.18450153
     atom   20 type  1   force =    -0.01799353    0.02175960    0.18450153
     atom   21 type  1   force =    -0.00984760   -0.02646266    0.18450153
     atom   22 type  1   force =     0.02817766    0.00090994    0.16330290
     atom   23 type  1   force =    -0.01487686    0.02394760    0.16330290
     atom   24 type  1   force =    -0.01330080   -0.02485754    0.16330290
     atom   25 type  1   force =     0.01507175    0.02365296    0.16326087
     atom   26 type  1   force =    -0.02801994    0.00122604    0.16326087
     atom   27 type  1   force =     0.01294819   -0.02487900    0.16326087
     atom   28 type  1   force =     0.02758699   -0.02200312    0.20784146
     atom   29 type  1   force =     0.00526176    0.03489260    0.20784146
     atom   30 type  1   force =    -0.03284876   -0.01288948    0.20784146
     atom    1 type  3   force =    -0.00001637    0.00000945   -5.42930682
     atom    2 type  3   force =     0.00012315   -0.00007110   -5.88614219
     atom    3 type  3   force =    -0.00010800    0.00006235   -3.66986849
     atom    4 type  4   force =    -0.00010801    0.00006236   -3.64761622
     atom    5 type  4   force =    -0.00001635    0.00000944   -5.41736413
     atom    6 type  4   force =     0.00012315   -0.00007110   -5.88411764
     atom    7 type  2   force =    -0.00006548    0.00003780    8.21958645
     atom    8 type  2   force =     0.00007127   -0.00004114    8.78205619
     atom    9 type  2   force =     0.00007126   -0.00004114    8.80705675
     atom   10 type  2   force =    -0.00000666    0.00000385    9.89073779
     atom   11 type  2   force =    -0.00000666    0.00000384    9.87756239
     atom   12 type  2   force =    -0.00006548    0.00003780    8.22723864
     atom   13 type  1   force =    -0.11541952   -2.13467626   -1.62399436
     atom   14 type  1   force =     1.90640129    0.96752460   -1.62390665
     atom   15 type  1   force =    -1.79104382    1.16718748   -1.62392579
     atom   16 type  1   force =    -1.83838926    0.46984977   -1.43747823
     atom   17 type  1   force =     0.51224038   -1.82696506   -1.43748444
     atom   18 type  1   force =     1.32619122    1.35709086   -1.43742485
     atom   19 type  1   force =    -0.50982531   -1.82801135   -1.43129137
     atom   20 type  1   force =     1.83796449    0.47238352   -1.43135096
     atom   21 type  1   force =    -1.32809686    1.35560340   -1.43134475
     atom   22 type  1   force =    -2.04114534    0.84003750   -0.91739012
     atom   23 type  1   force =     0.29312560   -2.18768461   -0.91740430
     atom   24 type  1   force =     1.74804154    1.34763453   -0.91737773
     atom   25 type  1   force =    -0.29518171   -2.18485873   -0.92428141
     atom   26 type  1   force =     2.03978075    0.83675146   -0.92430798
     atom   27 type  1   force =    -1.74457722    1.34809467   -0.92429380
     atom   28 type  1   force =    -1.90758571    0.96610404   -1.62217217
     atom   29 type  1   force =     0.11712987   -2.13514078   -1.62215303
     atom   30 type  1   force =     1.79039378    1.16907257   -1.62224075
     The local contribution  to forces
     atom    1 type  3   force =     0.00000000    0.00000000    5.31738972
     atom    2 type  3   force =     0.00148915   -0.00085976    5.76420981
     atom    3 type  3   force =    -0.00148917    0.00085977    3.55239606
     atom    4 type  4   force =    -0.00148911    0.00085974    3.53218377
     atom    5 type  4   force =    -0.00000000    0.00000000    5.30862519
     atom    6 type  4   force =     0.00148926   -0.00085982    5.76355397
     atom    7 type  2   force =    -0.00036722    0.00021201   -7.86554235
     atom    8 type  2   force =     0.00036748   -0.00021216   -8.46530151
     atom    9 type  2   force =     0.00036749   -0.00021217   -8.48638943
     atom   10 type  2   force =     0.00000000   -0.00000000   -9.49463657
     atom   11 type  2   force =    -0.00000000   -0.00000000   -9.48161018
     atom   12 type  2   force =    -0.00036722    0.00021202   -7.86960593
     atom   13 type  1   force =     0.13504285    2.10217580    1.41680702
     atom   14 type  1   force =    -1.88826316   -0.93385092    1.41675573
     atom   15 type  1   force =     1.75266738   -1.16800565    1.41677108
     atom   16 type  1   force =     1.83160386   -0.47910322    1.25463035
     atom   17 type  1   force =    -0.50068467    1.82541577    1.25464698
     atom   18 type  1   force =    -1.33036752   -1.34663107    1.25459488
     atom   19 type  1   force =     0.49901175    1.82610352    1.24974797
     atom   20 type  1   force =    -1.83075620   -0.48118063    1.24980007
     atom   21 type  1   force =     1.33229613   -1.34524140    1.24978344
     atom   22 type  1   force =     2.02087120   -0.82679107    0.75765834
     atom   23 type  1   force =    -0.29441353    2.16352133    0.75765834
     atom   24 type  1   force =    -1.72645767   -1.33673026    0.75765834
     atom   25 type  1   force =     0.29634266    2.16122632    0.76399671
     atom   26 type  1   force =    -2.01984823   -0.82397289    0.76399671
     atom   27 type  1   force =     1.72350557   -1.33725343    0.76399671
     atom   28 type  1   force =     1.88913157   -0.93208108    1.41636712
     atom   29 type  1   force =    -0.13756397    2.10242851    1.41635177
     atom   30 type  1   force =    -1.75212051   -1.17002820    1.41640307
     atom    1 type  3   force =    -0.00000000    0.00000000   -0.00029207
     atom    2 type  3   force =     0.00000121   -0.00000070   -0.00355085
     atom    3 type  3   force =    -0.00000119    0.00000069    0.00087448
     atom    4 type  4   force =    -0.00000119    0.00000069    0.00087333
     atom    5 type  4   force =    -0.00000000    0.00000000   -0.00028883
     atom    6 type  4   force =     0.00000121   -0.00000070   -0.00355191
     atom    7 type  2   force =    -0.00001416    0.00000817    0.01714923
     atom    8 type  2   force =     0.00001415   -0.00000817    0.01624879
     atom    9 type  2   force =     0.00001415   -0.00000817    0.01626061
     atom   10 type  2   force =     0.00000000   -0.00000000    0.01784384
     atom   11 type  2   force =     0.00000000   -0.00000000    0.01783876
     atom   12 type  2   force =    -0.00001416    0.00000817    0.01715451
     atom   13 type  1   force =    -0.00020680   -0.00027674   -0.00102517
     atom   14 type  1   force =     0.00034270   -0.00003997   -0.00102515
     atom   15 type  1   force =    -0.00013715    0.00031744   -0.00102521
     atom   16 type  1   force =    -0.00032456   -0.00022706   -0.00085561
     atom   17 type  1   force =     0.00035930   -0.00016826   -0.00085567
     atom   18 type  1   force =    -0.00003348    0.00039459   -0.00085565
     atom   19 type  1   force =    -0.00035799   -0.00016864   -0.00085845
     atom   20 type  1   force =     0.00032542   -0.00022645   -0.00085847
     atom   21 type  1   force =     0.00003383    0.00039437   -0.00085841
     atom   22 type  1   force =    -0.00027322   -0.00010594   -0.00077804
     atom   23 type  1   force =     0.00022836   -0.00018365   -0.00077804
     atom   24 type  1   force =     0.00004486    0.00028959   -0.00077804
     atom   25 type  1   force =    -0.00022941   -0.00018226   -0.00077729
     atom   26 type  1   force =     0.00027255   -0.00010754   -0.00077729
     atom   27 type  1   force =    -0.00004314    0.00028980   -0.00077729
     atom   28 type  1   force =    -0.00034427   -0.00004132   -0.00102524
     atom   29 type  1   force =     0.00020755   -0.00027679   -0.00102518
     atom   30 type  1   force =     0.00013547    0.00031883   -0.00102520
     The Hubbard contrib.    to forces
     atom    1 type  3   force =     0.00000000    0.00000000    0.00000000
     atom    2 type  3   force =     0.00000000    0.00000000    0.00000000
     atom    3 type  3   force =     0.00000000    0.00000000    0.00000000
     atom    4 type  4   force =     0.00000000    0.00000000    0.00000000
     atom    5 type  4   force =     0.00000000    0.00000000    0.00000000
     atom    6 type  4   force =     0.00000000    0.00000000    0.00000000
     atom    7 type  2   force =     0.00000000    0.00000000    0.00000000
     atom    8 type  2   force =     0.00000000    0.00000000    0.00000000
     atom    9 type  2   force =     0.00000000    0.00000000    0.00000000
     atom   10 type  2   force =     0.00000000    0.00000000    0.00000000
     atom   11 type  2   force =     0.00000000    0.00000000    0.00000000
     atom   12 type  2   force =     0.00000000    0.00000000    0.00000000
     atom   13 type  1   force =     0.00000000    0.00000000    0.00000000
     atom   14 type  1   force =     0.00000000    0.00000000    0.00000000
     atom   15 type  1   force =     0.00000000    0.00000000    0.00000000
     atom   16 type  1   force =     0.00000000    0.00000000    0.00000000
     atom   17 type  1   force =     0.00000000    0.00000000    0.00000000
     atom   18 type  1   force =     0.00000000    0.00000000    0.00000000
     atom   19 type  1   force =     0.00000000    0.00000000    0.00000000
     atom   20 type  1   force =     0.00000000    0.00000000    0.00000000
     atom   21 type  1   force =     0.00000000    0.00000000    0.00000000
     atom   22 type  1   force =     0.00000000    0.00000000    0.00000000
     atom   23 type  1   force =     0.00000000    0.00000000    0.00000000
     atom   24 type  1   force =     0.00000000    0.00000000    0.00000000
     atom   25 type  1   force =     0.00000000    0.00000000    0.00000000
     atom   26 type  1   force =     0.00000000    0.00000000    0.00000000
     atom   27 type  1   force =     0.00000000    0.00000000    0.00000000
     atom   28 type  1   force =     0.00000000    0.00000000    0.00000000
     atom   29 type  1   force =     0.00000000    0.00000000    0.00000000
     atom   30 type  1   force =     0.00000000    0.00000000    0.00000000
     atom    1 type  3   force =     0.00000001   -0.00000000    0.00190757
     atom    2 type  3   force =    -0.00000045    0.00000026    0.00109837
     atom    3 type  3   force =     0.00000051   -0.00000029    0.00149425
     atom    4 type  4   force =     0.00000047   -0.00000027   -0.00050882
     atom    5 type  4   force =     0.00000001   -0.00000000   -0.00145276
     atom    6 type  4   force =    -0.00000053    0.00000031   -0.00030083
     atom    7 type  2   force =     0.00000011   -0.00000007    0.00112483
     atom    8 type  2   force =    -0.00000012    0.00000007    0.00123624
     atom    9 type  2   force =    -0.00000012    0.00000007   -0.00232315
     atom   10 type  2   force =     0.00000000   -0.00000000   -0.00008371
     atom   11 type  2   force =     0.00000000   -0.00000000   -0.00014709
     atom   12 type  2   force =     0.00000011   -0.00000007   -0.00240164
     atom   13 type  1   force =     0.00037182   -0.00004247    0.00076559
     atom   14 type  1   force =    -0.00014909    0.00034315    0.00076557
     atom   15 type  1   force =    -0.00022262   -0.00030073    0.00076557
     atom   16 type  1   force =     0.00003123   -0.00020568    0.00069129
     atom   17 type  1   force =     0.00016250    0.00012992    0.00069128
     atom   18 type  1   force =    -0.00019381    0.00007581    0.00069128
     atom   19 type  1   force =    -0.00035761    0.00035225   -0.00087772
     atom   20 type  1   force =    -0.00012626   -0.00048576   -0.00087772
     atom   21 type  1   force =     0.00048379    0.00013356   -0.00087771
     atom   22 type  1   force =     0.00028756   -0.00020906   -0.00020261
     atom   23 type  1   force =     0.00003725    0.00035356   -0.00020260
     atom   24 type  1   force =    -0.00032482   -0.00014449   -0.00020261
     atom   25 type  1   force =    -0.00002339    0.00009148    0.00040606
     atom   26 type  1   force =    -0.00006755   -0.00006598    0.00040607
     atom   27 type  1   force =     0.00009093   -0.00002550    0.00040607
     atom   28 type  1   force =     0.00001000   -0.00027483   -0.00056117
     atom   29 type  1   force =     0.00023304    0.00014605   -0.00056117
     atom   30 type  1   force =    -0.00024295    0.00012873   -0.00056116
     Total force =     0.070896     Total SCF correction =     0.005703
     Computing stress (Cartesian axis) and pressure
     negative rho (up, down):  1.186E-01 1.186E-01
          total   stress  (Ry/bohr**3)                   (kbar)     P=     -117.34
     kinetic stress (kbar)  22093.23      0.00      0.00
     local   stress (kbar)  -7255.33     -0.00      0.00
     nonloc. stress (kbar)  14587.53      0.00      0.00
     hartree stress (kbar)  16541.47     -0.00     -0.00
     exc-cor stress (kbar)   8692.75     -0.00      0.00
     corecor stress (kbar) -17494.01      0.00     -0.00
     ewald   stress (kbar) -37279.99      0.00     -0.00
     hubbard stress (kbar)      0.00      0.00      0.00
     DFT-D   stress (kbar)      0.00      0.00      0.00
     XDM     stress (kbar)      0.00      0.00      0.00
     dft-nl  stress (kbar)      0.00      0.00      0.00
     TS-vdW  stress (kbar)      0.00      0.00      0.00
     BFGS Geometry Optimization
     Gradient error          =      1.6E-02
     Cell gradient error     =      8.4E-04
     enthalpy new            =   -3194.8266334833 Ry
     new trust radius        =       0.2134967077 bohr
ibrav =      4
Input lattice vectors:
New lattice vectors in INITIAL alat:
New lattice vectors in NEW alat (for information only):
Discrepancy in bohr =     0.000000    0.000000    0.000000
     new unit-cell volume =   2443.02644 a.u.^3 (   362.01917 Ang^3 )
CELL_PARAMETERS (alat= 10.61193968)
ATOMIC_POSITIONS (crystal)
     Writing output data file /home/aldair1809/Documentos/QE/4BFO/UHUBBARD/temp/geom_opt_relax/bifeo3-relax.save/
     NEW-OLD atomic charge density approx. for the potential
     Check: negative core charge=   -0.000015
     negative rho (up, down):  1.112E-01 1.112E-01
     extrapolated charge  276.43379, renormalised to  294.00000
     Generating pointlists ...
     new r_m :   0.1422 (alat units)  1.5092 (a.u.) for type    1
     new r_m :   0.1659 (alat units)  1.7604 (a.u.) for type    2
     new r_m :   0.1422 (alat units)  1.5093 (a.u.) for type    3
     new r_m :   0.1422 (alat units)  1.5092 (a.u.) for type    4
     total cpu time spent up to now is     2558.7 secs
     Self-consistent Calculation
     iteration #  1     ecut=    30.00 Ry     beta= 0.20
     CG style diagonalization
     c_bands:  4 eigenvalues not converged
     c_bands:  3 eigenvalues not converged
     c_bands:  1 eigenvalues not converged
     c_bands:  4 eigenvalues not converged
     c_bands:  2 eigenvalues not converged
     c_bands:  1 eigenvalues not converged
     c_bands:  1 eigenvalues not converged
     ethr =  1.00E-06,  avg # of iterations = 25.8
     negative rho (up, down):  1.186E-01 1.186E-01
     total cpu time spent up to now is     3671.9 secs
     total energy              =   -3155.59819301 Ry
     estimated scf accuracy    <      94.80389025 Ry
     total magnetization       =     0.00 Bohr mag/cell
     absolute magnetization    =     8.38 Bohr mag/cell
     iteration #  2     ecut=    30.00 Ry     beta= 0.20
     CG style diagonalization
     ethr =  1.00E-02,  avg # of iterations =  3.5
     negative rho (up, down):  1.216E-01 1.216E-01
     total cpu time spent up to now is     3869.9 secs
     total energy              =   -3192.71470080 Ry
     estimated scf accuracy    <     187.44464405 Ry
     total magnetization       =     0.00 Bohr mag/cell
     absolute magnetization    =     1.52 Bohr mag/cell
     iteration #  3     ecut=    30.00 Ry     beta= 0.20
     CG style diagonalization
     ethr =  1.00E-02,  avg # of iterations =  3.2
     negative rho (up, down):  1.213E-01 1.213E-01
     total cpu time spent up to now is     4049.5 secs
     total energy              =   -3193.69445465 Ry
     estimated scf accuracy    <      50.16785799 Ry
     total magnetization       =    -0.00 Bohr mag/cell
     absolute magnetization    =    16.31 Bohr mag/cell
     iteration #  4     ecut=    30.00 Ry     beta= 0.20
     CG style diagonalization
     ethr =  1.00E-02,  avg # of iterations =  3.0
     negative rho (up, down):  1.207E-01 1.207E-01
     total cpu time spent up to now is     4220.0 secs
     total energy              =   -3193.70317734 Ry
     estimated scf accuracy    <      49.07733931 Ry
     total magnetization       =     0.00 Bohr mag/cell
     absolute magnetization    =    16.26 Bohr mag/cell
     iteration #  5     ecut=    30.00 Ry     beta= 0.20
     CG style diagonalization
     ethr =  1.00E-02,  avg # of iterations =  3.0
     negative rho (up, down):  1.201E-01 1.201E-01
     total cpu time spent up to now is     4389.3 secs
     total energy              =   -3194.98400528 Ry
     estimated scf accuracy    <       2.04039303 Ry
     total magnetization       =     0.00 Bohr mag/cell
     absolute magnetization    =    26.90 Bohr mag/cell
     iteration #  6     ecut=    30.00 Ry     beta= 0.20
     CG style diagonalization
     ethr =  6.94E-04,  avg # of iterations =  3.0
     negative rho (up, down):  1.199E-01 1.199E-01
     total cpu time spent up to now is     4557.5 secs
     total energy              =   -3195.02871679 Ry
     estimated scf accuracy    <       1.67244511 Ry
     total magnetization       =    -0.00 Bohr mag/cell
     absolute magnetization    =    26.83 Bohr mag/cell
     iteration #  7     ecut=    30.00 Ry     beta= 0.20
     CG style diagonalization
     ethr =  5.69E-04,  avg # of iterations =  3.0
     negative rho (up, down):  1.197E-01 1.196E-01
     total cpu time spent up to now is     4694.0 secs
     total energy              =   -3195.04856636 Ry
     estimated scf accuracy    <       1.47284046 Ry
     total magnetization       =     0.00 Bohr mag/cell
     absolute magnetization    =    27.10 Bohr mag/cell
     iteration #  8     ecut=    30.00 Ry     beta= 0.20
     CG style diagonalization
     ethr =  5.01E-04,  avg # of iterations =  3.0
     negative rho (up, down):  1.195E-01 1.195E-01
     total cpu time spent up to now is     4844.4 secs
     total energy              =   -3195.05696912 Ry
     estimated scf accuracy    <       1.39661243 Ry
     total magnetization       =     0.00 Bohr mag/cell
     absolute magnetization    =    27.32 Bohr mag/cell
     iteration #  9     ecut=    30.00 Ry     beta= 0.20
     CG style diagonalization
     ethr =  4.75E-04,  avg # of iterations =  3.0
     negative rho (up, down):  1.194E-01 1.194E-01
     total cpu time spent up to now is     5004.0 secs
     total energy              =   -3195.05244186 Ry
     estimated scf accuracy    <       1.28371833 Ry
     total magnetization       =    -0.00 Bohr mag/cell
     absolute magnetization    =    27.62 Bohr mag/cell
     iteration # 10     ecut=    30.00 Ry     beta= 0.20
     CG style diagonalization
     ethr =  4.37E-04,  avg # of iterations =  3.0
     negative rho (up, down):  1.189E-01 1.189E-01
     total cpu time spent up to now is     5148.6 secs
     total energy              =   -3194.77561853 Ry
     estimated scf accuracy    <       1.15517386 Ry
     total magnetization       =    -0.00 Bohr mag/cell
     absolute magnetization    =    27.74 Bohr mag/cell
     iteration # 11     ecut=    30.00 Ry     beta= 0.20
     CG style diagonalization
     ethr =  3.93E-04,  avg # of iterations =  3.1
     negative rho (up, down):  1.189E-01 1.189E-01
     total cpu time spent up to now is     5329.9 secs
     total energy              =   -3194.87439105 Ry
     estimated scf accuracy    <       0.10147692 Ry
     total magnetization       =    -0.00 Bohr mag/cell
     absolute magnetization    =    27.91 Bohr mag/cell
     iteration # 12     ecut=    30.00 Ry     beta= 0.20
     CG style diagonalization
     c_bands:  1 eigenvalues not converged
     c_bands:  1 eigenvalues not converged
     c_bands:  2 eigenvalues not converged
     c_bands:  1 eigenvalues not converged
     c_bands:  1 eigenvalues not converged
     c_bands:  2 eigenvalues not converged
     c_bands:  1 eigenvalues not converged
     ethr =  3.45E-05,  avg # of iterations =  3.4
     negative rho (up, down):  1.191E-01 1.191E-01
     total cpu time spent up to now is     5525.1 secs
     total energy              =   -3194.86986983 Ry
     estimated scf accuracy    <       0.03663453 Ry
     total magnetization       =     0.00 Bohr mag/cell
     absolute magnetization    =    27.67 Bohr mag/cell
     iteration # 13     ecut=    30.00 Ry     beta= 0.20
     CG style diagonalization
     c_bands:  3 eigenvalues not converged
     c_bands:  2 eigenvalues not converged
     c_bands:  2 eigenvalues not converged
     c_bands:  1 eigenvalues not converged
     ethr =  1.25E-05,  avg # of iterations =  3.5
     negative rho (up, down):  1.191E-01 1.191E-01
     total cpu time spent up to now is     5724.1 secs
     total energy              =   -3194.87832319 Ry
     estimated scf accuracy    <       0.00987784 Ry
     total magnetization       =    -0.00 Bohr mag/cell
     absolute magnetization    =    27.33 Bohr mag/cell
     iteration # 14     ecut=    30.00 Ry     beta= 0.20
     CG style diagonalization
     c_bands:  1 eigenvalues not converged
     c_bands:  2 eigenvalues not converged
     ethr =  3.36E-06,  avg # of iterations =  3.5
     negative rho (up, down):  1.192E-01 1.192E-01
     total cpu time spent up to now is     5911.4 secs
     total energy              =   -3194.88010397 Ry
     estimated scf accuracy    <       0.00179588 Ry
     total magnetization       =    -0.00 Bohr mag/cell
     absolute magnetization    =    27.41 Bohr mag/cell
     iteration # 15     ecut=    30.00 Ry     beta= 0.20
     CG style diagonalization
     c_bands:  1 eigenvalues not converged
     c_bands:  1 eigenvalues not converged
     ethr =  6.11E-07,  avg # of iterations =  3.1
     negative rho (up, down):  1.192E-01 1.192E-01
     total cpu time spent up to now is     6063.5 secs
     total energy              =   -3194.88042448 Ry
     estimated scf accuracy    <       0.00057718 Ry
     total magnetization       =     0.00 Bohr mag/cell
     absolute magnetization    =    27.43 Bohr mag/cell
     iteration # 16     ecut=    30.00 Ry     beta= 0.20
     CG style diagonalization
     c_bands:  1 eigenvalues not converged
     ethr =  1.96E-07,  avg # of iterations =  3.2
     negative rho (up, down):  1.193E-01 1.193E-01
     total cpu time spent up to now is     6212.1 secs
     total energy              =   -3194.87994720 Ry
     estimated scf accuracy    <       0.00041716 Ry
     total magnetization       =    -0.00 Bohr mag/cell
     absolute magnetization    =    27.41 Bohr mag/cell
     iteration # 17     ecut=    30.00 Ry     beta= 0.20
     CG style diagonalization
     ethr =  1.42E-07,  avg # of iterations =  3.0
     negative rho (up, down):  1.194E-01 1.194E-01
     total cpu time spent up to now is     6351.0 secs
     total energy              =   -3194.88072009 Ry
     estimated scf accuracy    <       0.00032403 Ry
     total magnetization       =     0.00 Bohr mag/cell
     absolute magnetization    =    27.42 Bohr mag/cell
     iteration # 18     ecut=    30.00 Ry     beta= 0.20
     CG style diagonalization
     ethr =  1.10E-07,  avg # of iterations =  3.0
     negative rho (up, down):  1.194E-01 1.194E-01
     total cpu time spent up to now is     6489.0 secs
     total energy              =   -3194.88076687 Ry
     estimated scf accuracy    <       0.00004325 Ry
     total magnetization       =    -0.00 Bohr mag/cell
     absolute magnetization    =    27.43 Bohr mag/cell
     iteration # 19     ecut=    30.00 Ry     beta= 0.20
     CG style diagonalization
     ethr =  1.47E-08,  avg # of iterations =  3.1
     negative rho (up, down):  1.194E-01 1.194E-01
     total cpu time spent up to now is     6632.9 secs
     total energy              =   -3194.88078586 Ry
     estimated scf accuracy    <       0.00005319 Ry
     total magnetization       =    -0.00 Bohr mag/cell
     absolute magnetization    =    27.43 Bohr mag/cell
     iteration # 20     ecut=    30.00 Ry     beta= 0.20
     CG style diagonalization
     ethr =  1.47E-08,  avg # of iterations =  3.0
     negative rho (up, down):  1.195E-01 1.195E-01
     Magnetic moment per site:
     atom:    1    charge:   12.9274    magn:   -3.6793    constr:    0.0000
     atom:    2    charge:   12.9351    magn:   -3.5421    constr:    0.0000
     atom:    3    charge:   12.9502    magn:   -3.5309    constr:    0.0000
     atom:    4    charge:   12.9503    magn:    3.5302    constr:    0.0000
     atom:    5    charge:   12.9272    magn:    3.6792    constr:    0.0000
     atom:    6    charge:   12.9351    magn:    3.5422    constr:    0.0000
     atom:    7    charge:   10.4183    magn:   -0.0164    constr:    0.0000
     atom:    8    charge:   10.4183    magn:   -0.0130    constr:    0.0000
     atom:    9    charge:   10.4183    magn:    0.0130    constr:    0.0000
     atom:   10    charge:   10.4174    magn:   -0.0034    constr:    0.0000
     atom:   11    charge:   10.4172    magn:    0.0034    constr:    0.0000
     atom:   12    charge:   10.4183    magn:    0.0164    constr:    0.0000
     atom:   13    charge:    5.3318    magn:   -0.2111    constr:    0.0000
     atom:   14    charge:    5.3318    magn:   -0.2111    constr:    0.0000
     atom:   15    charge:    5.3318    magn:   -0.2111    constr:    0.0000
     atom:   16    charge:    5.3302    magn:   -0.2255    constr:    0.0000
     atom:   17    charge:    5.3302    magn:   -0.2255    constr:    0.0000
     atom:   18    charge:    5.3302    magn:   -0.2255    constr:    0.0000
     atom:   19    charge:    5.3303    magn:    0.2255    constr:    0.0000
     atom:   20    charge:    5.3303    magn:    0.2255    constr:    0.0000
     atom:   21    charge:    5.3303    magn:    0.2255    constr:    0.0000
     atom:   22    charge:    5.3233    magn:    0.0724    constr:    0.0000
     atom:   23    charge:    5.3233    magn:    0.0724    constr:    0.0000
     atom:   24    charge:    5.3233    magn:    0.0724    constr:    0.0000
     atom:   25    charge:    5.3230    magn:   -0.0725    constr:    0.0000
     atom:   26    charge:    5.3230    magn:   -0.0725    constr:    0.0000
     atom:   27    charge:    5.3230    magn:   -0.0725    constr:    0.0000
     atom:   28    charge:    5.3317    magn:    0.2113    constr:    0.0000
     atom:   29    charge:    5.3317    magn:    0.2113    constr:    0.0000
     atom:   30    charge:    5.3317    magn:    0.2113    constr:    0.0000
     total cpu time spent up to now is     6770.0 secs
     End of self-consistent calculation
          k = 0.0000 0.0000 0.0000 (  7259 PWs)   bands (ev):
     occupation numbers 
          k = 0.0000 0.0000-0.2037 (  7198 PWs)   bands (ev):
     occupation numbers 
          k = 0.0000 0.3925 0.0000 (  7204 PWs)   bands (ev):
     occupation numbers 
          k = 0.0000 0.3925-0.2037 (  7218 PWs)   bands (ev):
     occupation numbers 
          k = 0.3399 0.5888 0.0000 (  7185 PWs)   bands (ev):
     occupation numbers 
          k = 0.3399 0.5888-0.2037 (  7170 PWs)   bands (ev):
     occupation numbers 
          k = 0.0000 0.0000 0.0000 (  7259 PWs)   bands (ev):
     occupation numbers 
          k = 0.0000 0.0000-0.2037 (  7198 PWs)   bands (ev):
     occupation numbers 
          k = 0.0000 0.3925 0.0000 (  7204 PWs)   bands (ev):
     occupation numbers 
          k = 0.0000 0.3925-0.2037 (  7218 PWs)   bands (ev):
     occupation numbers 
          k = 0.3399 0.5888 0.0000 (  7185 PWs)   bands (ev):
     occupation numbers 
          k = 0.3399 0.5888-0.2037 (  7170 PWs)   bands (ev):
     occupation numbers 
     the spin up/dw Fermi energies are    12.5060   12.5061 ev
!    total energy              =   -3194.88080296 Ry
     estimated scf accuracy    <       0.00000862 Ry
     smearing contrib. (-TS)   =       0.00068787 Ry
     internal energy E=F+TS    =   -3194.88149083 Ry
     The total energy is F=E-TS. E is the sum of the following terms:
     hartree contribution      =     831.30083600 Ry
     ewald contribution        =   -2052.71261044 Ry
     total magnetization       =     0.00 Bohr mag/cell
     absolute magnetization    =    27.43 Bohr mag/cell
     convergence has been achieved in  20 iterations
     negative rho (up, down):  1.195E-01 1.195E-01
     Forces acting on atoms (cartesian axes, Ry/au):
     atom    1 type  3   force =     0.00000000   -0.00000000   -0.00486458
     atom    2 type  3   force =     0.00000000   -0.00000000    0.00351016
     atom    3 type  3   force =     0.00000000    0.00000000   -0.00889160
     atom    4 type  4   force =     0.00000000    0.00000000   -0.00917115
     atom    5 type  4   force =     0.00000000    0.00000000   -0.00488412
     atom    6 type  4   force =     0.00000000    0.00000000    0.00373470
     atom    7 type  2   force =     0.00000000   -0.00000000    0.02421842
     atom    8 type  2   force =     0.00000000    0.00000000    0.02144759
     atom    9 type  2   force =     0.00000000    0.00000000    0.02140322
     atom   10 type  2   force =     0.00000000   -0.00000000    0.02580257
     atom   11 type  2   force =     0.00000000    0.00000000    0.02669909
     atom   12 type  2   force =     0.00000000    0.00000000    0.02504101
     atom   13 type  1   force =     0.01563872    0.00443263   -0.00697983
     atom   14 type  1   force =    -0.01165813    0.01132721   -0.00697983
     atom   15 type  1   force =    -0.00398059   -0.01575985   -0.00697983
     atom   16 type  1   force =     0.01308984    0.00880984   -0.00754188
     atom   17 type  1   force =    -0.01417447    0.00693121   -0.00754188
     atom   18 type  1   force =     0.00108463   -0.01574105   -0.00754188
     atom   19 type  1   force =     0.01419752    0.00682044   -0.00788377
     atom   20 type  1   force =    -0.01300543    0.00888520   -0.00788377
     atom   21 type  1   force =    -0.00119209   -0.01570564   -0.00788377
     atom   22 type  1   force =     0.00909191    0.01036680   -0.00613625
     atom   23 type  1   force =    -0.01352387    0.00269042   -0.00613625
     atom   24 type  1   force =     0.00443196   -0.01305723   -0.00613625
     atom   25 type  1   force =     0.01361661    0.00265569   -0.00574692
     atom   26 type  1   force =    -0.00910820    0.01046449   -0.00574692
     atom   27 type  1   force =    -0.00450841   -0.01312018   -0.00574692
     atom   28 type  1   force =     0.01158590    0.01129015   -0.00705977
     atom   29 type  1   force =    -0.01557051    0.00438861   -0.00705977
     atom   30 type  1   force =     0.00398461   -0.01567876   -0.00705977
     The non-local contrib.  to forces
     atom    1 type  3   force =    -0.00000000   -0.00000000    0.13111736
     atom    2 type  3   force =     0.00000000    0.00000000    0.16393960
     atom    3 type  3   force =     0.00000000    0.00000000    0.11737441
     atom    4 type  4   force =    -0.00000000   -0.00000000    0.11677949
     atom    5 type  4   force =     0.00000000    0.00000000    0.13077288
     atom    6 type  4   force =     0.00000000    0.00000000    0.16414449
     atom    7 type  2   force =     0.00000000    0.00000000   -0.39915121
     atom    8 type  2   force =    -0.00000000   -0.00000000   -0.36429488
     atom    9 type  2   force =     0.00000000    0.00000000   -0.36558568
     atom   10 type  2   force =    -0.00000000   -0.00000000   -0.44209216
     atom   11 type  2   force =     0.00000000   -0.00000000   -0.44090273
     atom   12 type  2   force =     0.00000000    0.00000000   -0.39929928
     atom   13 type  1   force =    -0.00789056    0.04517184    0.21715776
     atom   14 type  1   force =    -0.03517468   -0.02941934    0.21715776
     atom   15 type  1   force =     0.04306524   -0.01575249    0.21715776
     atom   16 type  1   force =     0.02404635    0.01766638    0.18815886
     atom   17 type  1   force =    -0.02732271    0.01199156    0.18815886
     atom   18 type  1   force =     0.00327636   -0.02965794    0.18815886
     atom   19 type  1   force =     0.02722717    0.01244997    0.18776431
     atom   20 type  1   force =    -0.02439558    0.01735444    0.18776431
     atom   21 type  1   force =    -0.00283160   -0.02980441    0.18776431
     atom   22 type  1   force =     0.03956404   -0.00396446    0.16111105
     atom   23 type  1   force =    -0.01634870    0.03624570    0.16111105
     atom   24 type  1   force =    -0.02321535   -0.03228124    0.16111105
     atom   25 type  1   force =     0.01683543    0.03563720    0.16130952
     atom   26 type  1   force =    -0.03928043   -0.00323869    0.16130952
     atom   27 type  1   force =     0.02244500   -0.03239851    0.16130952
     atom   28 type  1   force =     0.03540698   -0.02897872    0.21659661
     atom   29 type  1   force =     0.00739282    0.04515271    0.21659661
     atom   30 type  1   force =    -0.04279980   -0.01617398    0.21659661
     atom    1 type  3   force =    -0.00001716    0.00000991   -5.36718490
     atom    2 type  3   force =     0.00012844   -0.00007415   -6.00666164
     atom    3 type  3   force =    -0.00011302    0.00006525   -3.35920417
     atom    4 type  4   force =    -0.00011306    0.00006527   -3.31613169
     atom    5 type  4   force =    -0.00001715    0.00000990   -5.31032665
     atom    6 type  4   force =     0.00012842   -0.00007414   -5.98327529
     atom    7 type  2   force =    -0.00006836    0.00003947    8.38684088
     atom    8 type  2   force =     0.00007421   -0.00004285    9.21332233
     atom    9 type  2   force =     0.00007424   -0.00004286    9.28757670
     atom   10 type  2   force =    -0.00000667    0.00000385   10.17563961
     atom   11 type  2   force =    -0.00000667    0.00000385   10.16269854
     atom   12 type  2   force =    -0.00006836    0.00003947    8.44497446
     atom   13 type  1   force =    -0.20602817   -2.15754286   -1.79823537
     atom   14 type  1   force =     1.97150920    0.90049502   -1.79814311
     atom   15 type  1   force =    -1.76554559    1.25708510   -1.79816316
     atom   16 type  1   force =    -1.91767858    0.28671357   -1.57063321
     atom   17 type  1   force =     0.71048421   -1.80406073   -1.57063999
     atom   18 type  1   force =     1.20723889    1.51732145   -1.57057782
     atom   19 type  1   force =    -0.70945173   -1.80914530   -1.55291876
     atom   20 type  1   force =     1.92143777    0.29006356   -1.55298088
     atom   21 type  1   force =    -1.21194152    1.51905602   -1.55297408
     atom   22 type  1   force =    -2.15289183    0.68139063   -1.02973265
     atom   23 type  1   force =     0.48639277   -2.20513499   -1.02974740
     atom   24 type  1   force =     1.66652166    1.52373131   -1.02971901
     atom   25 type  1   force =    -0.49058896   -2.19840328   -1.03836558
     atom   26 type  1   force =     2.14921599    0.67429368   -1.03839397
     atom   27 type  1   force =    -1.65860441    1.52409655   -1.03837921
     atom   28 type  1   force =    -1.97370072    0.89711393   -1.78620394
     atom   29 type  1   force =     0.20993508   -2.15790662   -1.78618388
     atom   30 type  1   force =     1.76370107    1.26082997   -1.78627615
     The local contribution  to forces
     atom    1 type  3   force =     0.00000000    0.00000000    5.23341124
     atom    2 type  3   force =     0.00145642   -0.00084087    5.85328595
     atom    3 type  3   force =    -0.00145591    0.00084057    3.23103058
     atom    4 type  4   force =    -0.00145596    0.00084060    3.18938811
     atom    5 type  4   force =    -0.00000000    0.00000000    5.17772206
     atom    6 type  4   force =     0.00145647   -0.00084089    5.83005104
     atom    7 type  2   force =    -0.00035575    0.00020539   -7.98274318
     atom    8 type  2   force =     0.00035606   -0.00020557   -8.84407845
     atom    9 type  2   force =     0.00035609   -0.00020559   -8.91573159
     atom   10 type  2   force =     0.00000000   -0.00000000   -9.72511841
     atom   11 type  2   force =    -0.00000000   -0.00000000   -9.71393840
     atom   12 type  2   force =    -0.00035577    0.00020540   -8.04009251
     atom   13 type  1   force =     0.22880463    2.11774568    1.57473573
     atom   14 type  1   force =    -1.94862436   -0.86044507    1.57468197
     atom   15 type  1   force =     1.71927960   -1.25698877    1.57469786
     atom   16 type  1   force =     1.90723881   -0.29613527    1.37546703
     atom   17 type  1   force =    -0.69696091    1.79943871    1.37548440
     atom   18 type  1   force =    -1.20973918   -1.50361447    1.37542980
     atom   19 type  1   force =     0.69640671    1.80372843    1.35804486
     atom   20 type  1   force =    -1.91008015   -0.29903416    1.35809944
     atom   21 type  1   force =     1.21421218   -1.50500531    1.35808205
     atom   22 type  1   force =     2.12247877   -0.66689179    0.86330159
     atom   23 type  1   force =    -0.48369416    2.17156643    0.86330159
     atom   24 type  1   force =    -1.63878462   -1.50467464    0.86330159
     atom   25 type  1   force =     0.48739143    2.16600132    0.87148366
     atom   26 type  1   force =    -2.11950789   -0.66090730    0.87148366
     atom   27 type  1   force =     1.63211645   -1.50509402    0.87148366
     atom   28 type  1   force =     1.95036761   -0.85712050    1.56305205
     atom   29 type  1   force =    -0.23309616    2.11797471    1.56303614
     atom   30 type  1   force =    -1.71781159   -1.26054236    1.56308991
     atom    1 type  3   force =    -0.00000000    0.00000000   -0.00050588
     atom    2 type  3   force =     0.00000121   -0.00000070   -0.00412597
     atom    3 type  3   force =    -0.00000118    0.00000068    0.00073293
     atom    4 type  4   force =    -0.00000118    0.00000068    0.00072613
     atom    5 type  4   force =    -0.00000000    0.00000000   -0.00050720
     atom    6 type  4   force =     0.00000121   -0.00000070   -0.00412358
     atom    7 type  2   force =    -0.00001388    0.00000801    0.01791871
     atom    8 type  2   force =     0.00001386   -0.00000800    0.01689722
     atom    9 type  2   force =     0.00001387   -0.00000801    0.01687547
     atom   10 type  2   force =    -0.00000000    0.00000000    0.01820732
     atom   11 type  2   force =    -0.00000000    0.00000000    0.01819618
     atom   12 type  2   force =    -0.00001388    0.00000801    0.01788515
     atom   13 type  1   force =    -0.00021022   -0.00035532   -0.00099968
     atom   14 type  1   force =     0.00041245   -0.00000365   -0.00099966
     atom   15 type  1   force =    -0.00020348    0.00035969   -0.00099972
     atom   16 type  1   force =    -0.00038006   -0.00016497   -0.00077999
     atom   17 type  1   force =     0.00033328   -0.00024737   -0.00078004
     atom   18 type  1   force =     0.00004805    0.00041161   -0.00078003
     atom   19 type  1   force =    -0.00033243   -0.00024917   -0.00077545
     atom   20 type  1   force =     0.00038238   -0.00016405   -0.00077547
     atom   21 type  1   force =    -0.00004869    0.00041249   -0.00077541
     atom   22 type  1   force =    -0.00036079   -0.00005089   -0.00066352
     atom   23 type  1   force =     0.00022447   -0.00028700   -0.00066352
     atom   24 type  1   force =     0.00013632    0.00033790   -0.00066352
     atom   25 type  1   force =    -0.00022616   -0.00028426   -0.00066544
     atom   26 type  1   force =     0.00035926   -0.00005373   -0.00066544
     atom   27 type  1   force =    -0.00013310    0.00033799   -0.00066544
     atom   28 type  1   force =    -0.00041423   -0.00000628   -0.00099566
     atom   29 type  1   force =     0.00021218   -0.00035489   -0.00099560
     atom   30 type  1   force =     0.00020080    0.00036190   -0.00099562
     The Hubbard contrib.    to forces
     atom    1 type  3   force =     0.00000000    0.00000000    0.00000000
     atom    2 type  3   force =     0.00000000    0.00000000    0.00000000
     atom    3 type  3   force =     0.00000000    0.00000000    0.00000000
     atom    4 type  4   force =     0.00000000    0.00000000    0.00000000
     atom    5 type  4   force =     0.00000000    0.00000000    0.00000000
     atom    6 type  4   force =     0.00000000    0.00000000    0.00000000
     atom    7 type  2   force =     0.00000000    0.00000000    0.00000000
     atom    8 type  2   force =     0.00000000    0.00000000    0.00000000
     atom    9 type  2   force =     0.00000000    0.00000000    0.00000000
     atom   10 type  2   force =     0.00000000    0.00000000    0.00000000
     atom   11 type  2   force =     0.00000000    0.00000000    0.00000000
     atom   12 type  2   force =     0.00000000    0.00000000    0.00000000
     atom   13 type  1   force =     0.00000000    0.00000000    0.00000000
     atom   14 type  1   force =     0.00000000    0.00000000    0.00000000
     atom   15 type  1   force =     0.00000000    0.00000000    0.00000000
     atom   16 type  1   force =     0.00000000    0.00000000    0.00000000
     atom   17 type  1   force =     0.00000000    0.00000000    0.00000000
     atom   18 type  1   force =     0.00000000    0.00000000    0.00000000
     atom   19 type  1   force =     0.00000000    0.00000000    0.00000000
     atom   20 type  1   force =     0.00000000    0.00000000    0.00000000
     atom   21 type  1   force =     0.00000000    0.00000000    0.00000000
     atom   22 type  1   force =     0.00000000    0.00000000    0.00000000
     atom   23 type  1   force =     0.00000000    0.00000000    0.00000000
     atom   24 type  1   force =     0.00000000    0.00000000    0.00000000
     atom   25 type  1   force =     0.00000000    0.00000000    0.00000000
     atom   26 type  1   force =     0.00000000    0.00000000    0.00000000
     atom   27 type  1   force =     0.00000000    0.00000000    0.00000000
     atom   28 type  1   force =     0.00000000    0.00000000    0.00000000
     atom   29 type  1   force =     0.00000000    0.00000000    0.00000000
     atom   30 type  1   force =     0.00000000    0.00000000    0.00000000
     atom    1 type  3   force =    -0.00000000    0.00000000   -0.00183597
     atom    2 type  3   force =     0.00000015   -0.00000009   -0.00306134
     atom    3 type  3   force =    -0.00000013    0.00000008    0.00104109
     atom    4 type  4   force =    -0.00000009    0.00000005   -0.00006674
     atom    5 type  4   force =    -0.00000000    0.00000000   -0.00267878
     atom    6 type  4   force =     0.00000012   -0.00000007   -0.00319553
     atom    7 type  2   force =    -0.00000001    0.00000001    0.00121964
     atom    8 type  2   force =     0.00000001   -0.00000001   -0.00053219
     atom    9 type  2   force =     0.00000001   -0.00000001   -0.00186523
     atom   10 type  2   force =    -0.00000000    0.00000000   -0.00096735
     atom   11 type  2   force =    -0.00000000    0.00000000    0.00051193
     atom   12 type  2   force =    -0.00000002    0.00000001    0.00143964
     atom   13 type  1   force =     0.00071644   -0.00046471    0.00020389
     atom   14 type  1   force =     0.00004423    0.00085283    0.00020389
     atom   15 type  1   force =    -0.00076069   -0.00038810    0.00020389
     atom   16 type  1   force =     0.00003219    0.00058849    0.00010232
     atom   17 type  1   force =    -0.00052574   -0.00026638    0.00010232
     atom   18 type  1   force =     0.00049358   -0.00032213    0.00010232
     atom   19 type  1   force =     0.00056862   -0.00010515   -0.00012375
     atom   20 type  1   force =    -0.00019325    0.00054500   -0.00012376
     atom   21 type  1   force =    -0.00037535   -0.00043986   -0.00012376
     atom   22 type  1   force =     0.00029054   -0.00009741   -0.00028593
     atom   23 type  1   force =    -0.00006091    0.00030032   -0.00028593
     atom   24 type  1   force =    -0.00022963   -0.00020291   -0.00028593
     atom   25 type  1   force =     0.00023112   -0.00027604    0.00037136
     atom   26 type  1   force =     0.00012350    0.00033817    0.00037136
     atom   27 type  1   force =    -0.00035462   -0.00006214    0.00037136
     atom   28 type  1   force =    -0.00023111    0.00040372    0.00036765
     atom   29 type  1   force =    -0.00023408   -0.00040201    0.00036765
     atom   30 type  1   force =     0.00046518   -0.00000170    0.00036764
     Total force =     0.093961     Total SCF correction =     0.006823
     Computing stress (Cartesian axis) and pressure
     negative rho (up, down):  1.195E-01 1.195E-01
          total   stress  (Ry/bohr**3)                   (kbar)     P=       31.74
     kinetic stress (kbar)  23561.90     -0.00      0.00
     local   stress (kbar)  -6555.19     -0.00      0.00
     nonloc. stress (kbar)  15559.63      0.00      0.00
     hartree stress (kbar)  17203.66      0.00     -0.00
     exc-cor stress (kbar)   9214.51     -0.00      0.00
     corecor stress (kbar) -18586.13      0.00     -0.00
     ewald   stress (kbar) -40359.46      0.00     -0.00
     hubbard stress (kbar)      0.00      0.00      0.00
     DFT-D   stress (kbar)      0.00      0.00      0.00
     XDM     stress (kbar)      0.00      0.00      0.00
     dft-nl  stress (kbar)      0.00      0.00      0.00
     TS-vdW  stress (kbar)      0.00      0.00      0.00
     Gradient error          =      2.7E-02
     Cell gradient error     =      2.6E-04
     enthalpy old            =   -3194.8266334833 Ry
     enthalpy new            =   -3194.8808029566 Ry
     CASE: enthalpy_new < enthalpy_old
     new trust radius        =       0.0405703424 bohr
ibrav =      4
Input lattice vectors:
New lattice vectors in INITIAL alat:
New lattice vectors in NEW alat (for information only):
Discrepancy in bohr =     0.000000    0.000000    0.000000
     new unit-cell volume =   2465.72659 a.u.^3 (   365.38298 Ang^3 )
CELL_PARAMETERS (alat= 10.61193968)
ATOMIC_POSITIONS (crystal)
     Writing output data file /home/aldair1809/Documentos/QE/4BFO/UHUBBARD/temp/geom_opt_relax/bifeo3-relax.save/
     NEW-OLD atomic charge density approx. for the potential
     Check: negative core charge=   -0.000016
     negative rho (up, down):  1.195E-01 1.195E-01
     extrapolated charge  296.59617, renormalised to  294.00000
     Generating pointlists ...
     total cpu time spent up to now is     6882.6 secs
     Self-consistent Calculation
     iteration #  1     ecut=    30.00 Ry     beta= 0.20
     CG style diagonalization
     ethr =  1.00E-06,  avg # of iterations = 17.1
     negative rho (up, down):  1.185E-01 1.185E-01
     total cpu time spent up to now is     7839.8 secs
     total energy              =   -3194.57025004 Ry
     estimated scf accuracy    <       0.54392315 Ry
     total magnetization       =    -0.00 Bohr mag/cell
     absolute magnetization    =    28.14 Bohr mag/cell
     iteration #  2     ecut=    30.00 Ry     beta= 0.20
     CG style diagonalization
     ethr =  1.85E-04,  avg # of iterations =  3.6
     negative rho (up, down):  1.185E-01 1.185E-01
     total cpu time spent up to now is     8028.3 secs
     total energy              =   -3194.83269869 Ry
     estimated scf accuracy    <       1.44467770 Ry
     total magnetization       =     0.00 Bohr mag/cell
     absolute magnetization    =    25.54 Bohr mag/cell
     iteration #  3     ecut=    30.00 Ry     beta= 0.20
     CG style diagonalization
     ethr =  1.85E-04,  avg # of iterations =  3.0
     negative rho (up, down):  1.185E-01 1.185E-01
     total cpu time spent up to now is     8210.7 secs
     total energy              =   -3194.89295440 Ry
     estimated scf accuracy    <       0.11970549 Ry
     total magnetization       =     0.00 Bohr mag/cell
     absolute magnetization    =    27.13 Bohr mag/cell
     iteration #  4     ecut=    30.00 Ry     beta= 0.20
     CG style diagonalization
     ethr =  4.07E-05,  avg # of iterations =  3.0
     negative rho (up, down):  1.185E-01 1.185E-01
     total cpu time spent up to now is     8407.9 secs
     total energy              =   -3194.89387592 Ry
     estimated scf accuracy    <       0.05228418 Ry
     total magnetization       =     0.00 Bohr mag/cell
     absolute magnetization    =    27.25 Bohr mag/cell
     iteration #  5     ecut=    30.00 Ry     beta= 0.20
     CG style diagonalization
     ethr =  1.78E-05,  avg # of iterations =  3.0
     negative rho (up, down):  1.185E-01 1.185E-01
     total cpu time spent up to now is     8623.6 secs
     total energy              =   -3194.89181705 Ry
     estimated scf accuracy    <       0.03119832 Ry
     total magnetization       =     0.00 Bohr mag/cell
     absolute magnetization    =    27.30 Bohr mag/cell
     iteration #  6     ecut=    30.00 Ry     beta= 0.20
     CG style diagonalization
     ethr =  1.06E-05,  avg # of iterations =  3.0
     negative rho (up, down):  1.185E-01 1.185E-01
     total cpu time spent up to now is     8831.9 secs
     total energy              =   -3194.88943388 Ry
     estimated scf accuracy    <       0.01729633 Ry
     total magnetization       =    -0.00 Bohr mag/cell
     absolute magnetization    =    27.34 Bohr mag/cell
     iteration #  7     ecut=    30.00 Ry     beta= 0.20
     CG style diagonalization
     ethr =  5.88E-06,  avg # of iterations =  3.0
     negative rho (up, down):  1.185E-01 1.185E-01
     total cpu time spent up to now is     9001.8 secs
     total energy              =   -3194.89012022 Ry
     estimated scf accuracy    <       0.00459306 Ry
     total magnetization       =     0.00 Bohr mag/cell
     absolute magnetization    =    27.41 Bohr mag/cell
     iteration #  8     ecut=    30.00 Ry     beta= 0.20
     CG style diagonalization
     ethr =  1.56E-06,  avg # of iterations =  3.0
     negative rho (up, down):  1.185E-01 1.185E-01
     total cpu time spent up to now is     9172.8 secs
     total energy              =   -3194.89019786 Ry
     estimated scf accuracy    <       0.00162658 Ry
     total magnetization       =     0.00 Bohr mag/cell
     absolute magnetization    =    27.44 Bohr mag/cell
     iteration #  9     ecut=    30.00 Ry     beta= 0.20
     CG style diagonalization
     ethr =  5.53E-07,  avg # of iterations =  3.1
     negative rho (up, down):  1.185E-01 1.185E-01
     total cpu time spent up to now is     9335.1 secs
     total energy              =   -3194.89012758 Ry
     estimated scf accuracy    <       0.00123142 Ry
     total magnetization       =     0.00 Bohr mag/cell
     absolute magnetization    =    27.44 Bohr mag/cell
     iteration # 10     ecut=    30.00 Ry     beta= 0.20
     CG style diagonalization
     ethr =  4.19E-07,  avg # of iterations =  3.0
     negative rho (up, down):  1.185E-01 1.185E-01
     total cpu time spent up to now is     9472.5 secs
     total energy              =   -3194.88993162 Ry
     estimated scf accuracy    <       0.00067510 Ry
     total magnetization       =     0.00 Bohr mag/cell
     absolute magnetization    =    27.45 Bohr mag/cell
     iteration # 11     ecut=    30.00 Ry     beta= 0.20
     CG style diagonalization
     ethr =  2.30E-07,  avg # of iterations =  3.0
     negative rho (up, down):  1.185E-01 1.185E-01
     total cpu time spent up to now is     9611.8 secs
     total energy              =   -3194.89004037 Ry
     estimated scf accuracy    <       0.00004104 Ry
     total magnetization       =    -0.00 Bohr mag/cell
     absolute magnetization    =    27.49 Bohr mag/cell
     iteration # 12     ecut=    30.00 Ry     beta= 0.20
     CG style diagonalization
     ethr =  1.40E-08,  avg # of iterations =  3.3
     negative rho (up, down):  1.185E-01 1.185E-01
     total cpu time spent up to now is     9762.9 secs
     total energy              =   -3194.89004677 Ry
     estimated scf accuracy    <       0.00000495 Ry
     total magnetization       =    -0.00 Bohr mag/cell
     absolute magnetization    =    27.49 Bohr mag/cell
     iteration # 13     ecut=    30.00 Ry     beta= 0.20
     CG style diagonalization
     ethr =  1.69E-09,  avg # of iterations =  3.4
     negative rho (up, down):  1.185E-01 1.185E-01
     total cpu time spent up to now is     9918.7 secs
     total energy              =   -3194.89004756 Ry
     estimated scf accuracy    <       0.00000340 Ry
     total magnetization       =     0.00 Bohr mag/cell
[...]
     atom    8 type  2   force =     0.00000000   -0.00000000    0.00039757
     atom    9 type  2   force =     0.00000000   -0.00000000    0.00023345
     atom   10 type  2   force =     0.00000000   -0.00000000   -0.00103486
     atom   11 type  2   force =     0.00000000    0.00000000   -0.00078989
     atom   12 type  2   force =     0.00000000    0.00000000   -0.00068046
     atom   13 type  1   force =     0.00074884   -0.00022006    0.00037413
     atom   14 type  1   force =    -0.00018384    0.00075855    0.00037413
     atom   15 type  1   force =    -0.00056500   -0.00053848    0.00037413
     atom   16 type  1   force =     0.00009156    0.00019297   -0.00014703
     atom   17 type  1   force =    -0.00021289   -0.00001719   -0.00014703
     atom   18 type  1   force =     0.00012134   -0.00017578   -0.00014703
     atom   19 type  1   force =     0.00022229   -0.00003202   -0.00016719
     atom   20 type  1   force =    -0.00008341    0.00020852   -0.00016719
     atom   21 type  1   force =    -0.00013888   -0.00017650   -0.00016719
     atom   22 type  1   force =    -0.00055632   -0.00022125    0.00013166
     atom   23 type  1   force =     0.00046977   -0.00037116    0.00013166
     atom   24 type  1   force =     0.00008655    0.00059241    0.00013166
     atom   25 type  1   force =    -0.00047711   -0.00035821    0.00011752
     atom   26 type  1   force =     0.00054878   -0.00023409    0.00011752
     atom   27 type  1   force =    -0.00007167    0.00059230    0.00011752
     atom   28 type  1   force =     0.00019281    0.00077673    0.00034684
     atom   29 type  1   force =    -0.00076907   -0.00022138    0.00034684
     atom   30 type  1   force =     0.00057626   -0.00055535    0.00034684
     The non-local contrib.  to forces
     atom    1 type  3   force =     0.00000000    0.00000000    0.11712363
     atom    2 type  3   force =    -0.00000000    0.00000000    0.15585154
     atom    3 type  3   force =     0.00000000   -0.00000000    0.08292760
     atom    4 type  4   force =    -0.00000000   -0.00000000    0.08291442
     atom    5 type  4   force =     0.00000000    0.00000000    0.11709356
     atom    6 type  4   force =     0.00000000   -0.00000000    0.15582330
     atom    7 type  2   force =     0.00000000   -0.00000000   -0.38344113
     atom    8 type  2   force =    -0.00000000   -0.00000000   -0.33657452
     atom    9 type  2   force =     0.00000000   -0.00000000   -0.33680381
     atom   10 type  2   force =    -0.00000000   -0.00000000   -0.40679811
     atom   11 type  2   force =     0.00000000    0.00000000   -0.40661586
     atom   12 type  2   force =     0.00000000    0.00000000   -0.38342694
     atom   13 type  1   force =    -0.03866491    0.00942110    0.21133034
     atom   14 type  1   force =     0.01117354   -0.03819534    0.21133034
     atom   15 type  1   force =     0.02749137    0.02877424    0.21133034
     atom   16 type  1   force =    -0.02841865    0.01808094    0.20074142
     atom   17 type  1   force =    -0.00144923   -0.03365174    0.20074142
     atom   18 type  1   force =     0.02986788    0.01557080    0.20074142
     atom   19 type  1   force =     0.00134001   -0.03358058    0.20077302
     atom   20 type  1   force =     0.02841162    0.01795077    0.20077302
     atom   21 type  1   force =    -0.02975164    0.01562980    0.20077302
     atom   22 type  1   force =     0.01046982    0.00833410    0.12954147
     atom   23 type  1   force =    -0.01245245    0.00490009    0.12954147
     atom   24 type  1   force =     0.00198263   -0.01323418    0.12954147
     atom   25 type  1   force =     0.01251628    0.00494202    0.12942949
     atom   26 type  1   force =    -0.01053805    0.00836841    0.12942949
     atom   27 type  1   force =    -0.00197823   -0.01331042    0.12942949
     atom   28 type  1   force =    -0.01109258   -0.03834909    0.21122038
     atom   29 type  1   force =     0.03875758    0.00956809    0.21122038
     atom   30 type  1   force =    -0.02766500    0.02878100    0.21122038
     atom    1 type  3   force =    -0.00001602    0.00000925   -4.55964719
     atom    2 type  3   force =     0.00012674   -0.00007317   -5.56027267
     atom    3 type  3   force =    -0.00011427    0.00006597   -2.90863916
     atom    4 type  4   force =    -0.00011427    0.00006597   -2.88883016
     atom    5 type  4   force =    -0.00001600    0.00000924   -4.55483334
     atom    6 type  4   force =     0.00012672   -0.00007316   -5.57696515
     atom    7 type  2   force =    -0.00006802    0.00003927    7.63842009
     atom    8 type  2   force =     0.00007280   -0.00004203    8.21821764
     atom    9 type  2   force =     0.00007280   -0.00004203    8.23525877
     atom   10 type  2   force =    -0.00000569    0.00000329    8.88169807
     atom   11 type  2   force =    -0.00000570    0.00000329    8.86654406
     atom   12 type  2   force =    -0.00006801    0.00003927    7.63929009
     atom   13 type  1   force =    -0.20971998   -1.87923688   -1.66536593
     atom   14 type  1   force =     1.73234039    0.75814275   -1.66526891
     atom   15 type  1   force =    -1.52268081    1.12112900   -1.66528617
     atom   16 type  1   force =    -1.63434840    0.06396964   -1.45093633
     atom   17 type  1   force =     0.76172103   -1.44731302   -1.45094042
     atom   18 type  1   force =     0.87267034    1.38331858   -1.45087156
     atom   19 type  1   force =    -0.76008397   -1.44862027   -1.44730944
     atom   20 type  1   force =     1.63453008    0.06594947   -1.44737828
     atom   21 type  1   force =    -0.87440316    1.38264599   -1.44737419
     atom   22 type  1   force =    -2.01354604    0.37491440   -0.78555736
     atom   23 type  1   force =     0.68213353   -1.93121974   -0.78557262
     atom   24 type  1   force =     1.33143440    1.55629271   -0.78554829
     atom   25 type  1   force =    -0.68289124   -1.93131313   -0.79260854
     atom   26 type  1   force =     2.01405777    0.37421063   -0.79263286
     atom   27 type  1   force =    -1.33114463    1.55708986   -0.79261760
     atom   28 type  1   force =    -1.73278592    0.76095492   -1.66830335
     atom   29 type  1   force =     0.20740019   -1.88119147   -1.66828609
     atom   30 type  1   force =     1.52532534    1.12027141   -1.66838311
     The local contribution  to forces
     atom    1 type  3   force =     0.00000000    0.00000000    4.44278079
     atom    2 type  3   force =     0.00146292   -0.00084462    5.40849774
     atom    3 type  3   force =    -0.00146060    0.00084328    2.82506510
     atom    4 type  4   force =    -0.00146061    0.00084329    2.80553537
     atom    5 type  4   force =    -0.00000000    0.00000000    4.43813844
     atom    6 type  4   force =     0.00146293   -0.00084463    5.42500427
     atom    7 type  2   force =    -0.00035727    0.00020627   -7.27379862
     atom    8 type  2   force =     0.00035706   -0.00020615   -7.89794233
     atom    9 type  2   force =     0.00035707   -0.00020615   -7.91455539
     atom   10 type  2   force =     0.00000000   -0.00000000   -8.49385373
     atom   11 type  2   force =    -0.00000000   -0.00000000   -8.47901764
     atom   12 type  2   force =    -0.00035728    0.00020628   -7.27458867
     atom   13 type  1   force =     0.24888136    1.86981098    1.45545633
     atom   14 type  1   force =    -1.74394638   -0.71909186    1.45539940
     atom   15 type  1   force =     1.49452309   -1.15040624    1.45541177
     atom   16 type  1   force =     1.66302579   -0.08184884    1.25089931
     atom   17 type  1   force =    -0.76043073    1.48079805    1.25091258
     atom   18 type  1   force =    -0.90205516   -1.39926092    1.25085552
     atom   19 type  1   force =     0.75935593    1.48194223    1.24737584
     atom   20 type  1   force =    -1.66287859   -0.08362408    1.24743289
     atom   21 type  1   force =     0.90406258   -1.39862988    1.24741962
     atom   22 type  1   force =     2.00266660   -0.38338097    0.65670840
     atom   23 type  1   force =    -0.66931564    1.92605063    0.65670840
     atom   24 type  1   force =    -1.33335096   -1.54266967    0.65670840
     atom   25 type  1   force =     0.67004035    1.92615792    0.66368829
     atom   26 type  1   force =    -2.00312187   -0.38280699    0.66368829
     atom   27 type  1   force =     1.33308151   -1.54335093    0.66368829
     atom   28 type  1   force =     1.74400863   -0.72175482    1.45846822
     atom   29 type  1   force =    -0.24714820    1.87158291    1.45845583
     atom   30 type  1   force =    -1.49740238   -1.14951519    1.45851277
     atom    1 type  3   force =     0.00000000   -0.00000000   -0.00059667
     atom    2 type  3   force =     0.00000120   -0.00000069   -0.00437903
     atom    3 type  3   force =    -0.00000117    0.00000067    0.00094981
     atom    4 type  4   force =    -0.00000117    0.00000067    0.00094908
     atom    5 type  4   force =     0.00000000   -0.00000000   -0.00059801
     atom    6 type  4   force =     0.00000120   -0.00000069   -0.00438011
     atom    7 type  2   force =    -0.00001395    0.00000805    0.01819000
     atom    8 type  2   force =     0.00001393   -0.00000804    0.01659949
     atom    9 type  2   force =     0.00001393   -0.00000804    0.01659898
     atom   10 type  2   force =    -0.00000000   -0.00000000    0.01814459
     atom   11 type  2   force =     0.00000000    0.00000000    0.01814234
     atom   12 type  2   force =    -0.00001395    0.00000805    0.01818402
     atom   13 type  1   force =     0.00010431   -0.00010738   -0.00105864
     atom   14 type  1   force =     0.00004047    0.00014476   -0.00105864
     atom   15 type  1   force =    -0.00014602   -0.00003666   -0.00105869
     atom   16 type  1   force =     0.00003473   -0.00007010   -0.00092902
     atom   17 type  1   force =     0.00004372    0.00006441   -0.00092907
     atom   18 type  1   force =    -0.00007720    0.00000496   -0.00092907
     atom   19 type  1   force =    -0.00004249    0.00006420   -0.00092926
     atom   20 type  1   force =    -0.00003397   -0.00006963   -0.00092926
     atom   21 type  1   force =     0.00007772    0.00000471   -0.00092921
     atom   22 type  1   force =    -0.00012777   -0.00003555   -0.00055040
     atom   23 type  1   force =     0.00009467   -0.00009288   -0.00055040
     atom   24 type  1   force =     0.00003310    0.00012843   -0.00055040
     atom   25 type  1   force =    -0.00009484   -0.00009328   -0.00054949
     atom   26 type  1   force =     0.00012820   -0.00003550   -0.00054949
     atom   27 type  1   force =    -0.00003336    0.00012878   -0.00054949
     atom   28 type  1   force =    -0.00004185    0.00014528   -0.00105787
     atom   29 type  1   force =    -0.00010527   -0.00010819   -0.00105782
     atom   30 type  1   force =     0.00014587   -0.00003638   -0.00105782
     The Hubbard contrib.    to forces
     atom    1 type  3   force =     0.00000000    0.00000000    0.00000000
     atom    2 type  3   force =     0.00000000    0.00000000    0.00000000
     atom    3 type  3   force =     0.00000000    0.00000000    0.00000000
     atom    4 type  4   force =     0.00000000    0.00000000    0.00000000
     atom    5 type  4   force =     0.00000000    0.00000000    0.00000000
     atom    6 type  4   force =     0.00000000    0.00000000    0.00000000
     atom    7 type  2   force =     0.00000000    0.00000000    0.00000000
     atom    8 type  2   force =     0.00000000    0.00000000    0.00000000
     atom    9 type  2   force =     0.00000000    0.00000000    0.00000000
     atom   10 type  2   force =     0.00000000    0.00000000    0.00000000
     atom   11 type  2   force =     0.00000000    0.00000000    0.00000000
     atom   12 type  2   force =     0.00000000    0.00000000    0.00000000
     atom   13 type  1   force =     0.00000000    0.00000000    0.00000000
     atom   14 type  1   force =     0.00000000    0.00000000    0.00000000
     atom   15 type  1   force =     0.00000000    0.00000000    0.00000000
     atom   16 type  1   force =     0.00000000    0.00000000    0.00000000
     atom   17 type  1   force =     0.00000000    0.00000000    0.00000000
     atom   18 type  1   force =     0.00000000    0.00000000    0.00000000
     atom   19 type  1   force =     0.00000000    0.00000000    0.00000000
     atom   20 type  1   force =     0.00000000    0.00000000    0.00000000
     atom   21 type  1   force =     0.00000000    0.00000000    0.00000000
     atom   22 type  1   force =     0.00000000    0.00000000    0.00000000
     atom   23 type  1   force =     0.00000000    0.00000000    0.00000000
     atom   24 type  1   force =     0.00000000    0.00000000    0.00000000
     atom   25 type  1   force =     0.00000000    0.00000000    0.00000000
     atom   26 type  1   force =     0.00000000    0.00000000    0.00000000
     atom   27 type  1   force =     0.00000000    0.00000000    0.00000000
     atom   28 type  1   force =     0.00000000    0.00000000    0.00000000
     atom   29 type  1   force =     0.00000000    0.00000000    0.00000000
     atom   30 type  1   force =     0.00000000    0.00000000    0.00000000
     atom    1 type  3   force =    -0.00000000    0.00000000    0.00026159
     atom    2 type  3   force =     0.00000008   -0.00000005    0.00007798
     atom    3 type  3   force =    -0.00000009    0.00000005    0.00040016
     atom    4 type  4   force =    -0.00000009    0.00000005    0.00004418
     atom    5 type  4   force =    -0.00000000    0.00000000    0.00005814
     atom    6 type  4   force =     0.00000008   -0.00000004    0.00031664
     atom    7 type  2   force =    -0.00000002    0.00000001   -0.00011742
     atom    8 type  2   force =     0.00000002   -0.00000001    0.00009992
     atom    9 type  2   force =     0.00000002   -0.00000001   -0.00026248
     atom   10 type  2   force =    -0.00000000    0.00000000   -0.00022305
     atom   11 type  2   force =    -0.00000000    0.00000000    0.00015984
     atom   12 type  2   force =    -0.00000002    0.00000001   -0.00013633
     atom   13 type  1   force =    -0.00009670    0.00001547   -0.00001042
     atom   14 type  1   force =     0.00003495   -0.00009147   -0.00001041
     atom   15 type  1   force =     0.00006173    0.00007601   -0.00001041
     atom   16 type  1   force =    -0.00003412   -0.00007948    0.00007019
     atom   17 type  1   force =     0.00008589    0.00001019    0.00007019
     atom   18 type  1   force =    -0.00005176    0.00006928    0.00007019
     atom   19 type  1   force =    -0.00012557    0.00002157   -0.00006383
     atom   20 type  1   force =     0.00004411   -0.00011955   -0.00006383
     atom   21 type  1   force =     0.00008148    0.00009796   -0.00006383
     atom   22 type  1   force =    -0.00003017   -0.00003515   -0.00000576
     atom   23 type  1   force =     0.00004553   -0.00000855   -0.00000576
     atom   24 type  1   force =    -0.00001536    0.00004371   -0.00000576
     atom   25 type  1   force =    -0.00002181   -0.00003366    0.00017152
     atom   26 type  1   force =     0.00004006   -0.00000206    0.00017152
     atom   27 type  1   force =    -0.00001825    0.00003572    0.00017152
     atom   28 type  1   force =    -0.00005310   -0.00009621    0.00003217
     atom   29 type  1   force =     0.00010987    0.00000212    0.00003217
     atom   30 type  1   force =    -0.00005679    0.00009410    0.00003216
     Total force =     0.003335     Total SCF correction =     0.000890
     SCF correction compared to forces is large: reduce conv_thr to get better values
     Computing stress (Cartesian axis) and pressure
     negative rho (up, down):  1.180E-01 1.180E-01
          total   stress  (Ry/bohr**3)                   (kbar)     P=      -52.23
     kinetic stress (kbar)  23580.72      0.00      0.00
     local   stress (kbar)  -6321.82     -0.00      0.00
     nonloc. stress (kbar)  15517.51      0.00      0.00
     hartree stress (kbar)  17094.24      0.00      0.00
     exc-cor stress (kbar)   9228.96     -0.00      0.00
     corecor stress (kbar) -18602.35      0.00     -0.00
     ewald   stress (kbar) -40544.21      0.00     -0.00
     hubbard stress (kbar)      0.00      0.00      0.00
     DFT-D   stress (kbar)      0.00      0.00      0.00
     XDM     stress (kbar)      0.00      0.00      0.00
     dft-nl  stress (kbar)      0.00      0.00      0.00
     TS-vdW  stress (kbar)      0.00      0.00      0.00
     Writing output data file /home/aldair1809/Documentos/QE/4BFO/UHUBBARD/temp/geom_opt_relax/bifeo3-relax.save/
     init_run     :     78.15s CPU     79.98s WALL (       2 calls)
     electrons    :  31191.53s CPU  31795.97s WALL (      13 calls)
     update_pot   :    125.98s CPU    126.37s WALL (      11 calls)
     forces       :    506.10s CPU    515.34s WALL (      13 calls)
     stress       :    738.04s CPU    760.92s WALL (      13 calls)
     Called by init_run:
     wfcinit      :     57.12s CPU     57.58s WALL (       2 calls)
     wfcinit:atom :      0.10s CPU      0.10s WALL (      24 calls)
     wfcinit:wfcr :     56.26s CPU     56.71s WALL (      24 calls)
     potinit      :      5.54s CPU      5.61s WALL (       2 calls)
     hinit0       :     11.39s CPU     11.56s WALL (       2 calls)
     Called by electrons:
     c_bands      :  28336.39s CPU  28701.83s WALL (     178 calls)
     sum_band     :   2386.47s CPU   2521.13s WALL (     178 calls)
     v_of_rho     :     64.71s CPU     66.83s WALL (     189 calls)
     v_h          :      2.53s CPU      2.66s WALL (     189 calls)
     v_xc         :     70.64s CPU     72.86s WALL (     215 calls)
     newd         :    419.58s CPU    528.41s WALL (     189 calls)
     mix_rho      :     10.11s CPU     10.53s WALL (     178 calls)
     Called by c_bands:
     init_us_2    :     35.01s CPU     35.15s WALL (    4608 calls)
     ccgdiagg     :  22563.40s CPU  22878.62s WALL (    2264 calls)
     wfcrot       :   5798.26s CPU   5848.68s WALL (    2108 calls)
     Called by sum_band:
     sum_band:wei :      0.82s CPU      0.82s WALL (     178 calls)
     sum_band:loo :   1568.82s CPU   1595.61s WALL (     178 calls)
     sum_band:buf :      6.12s CPU      6.17s WALL (    2136 calls)
     sum_band:ini :     16.24s CPU     16.28s WALL (    2136 calls)
     sum_band:cal :   1191.23s CPU   1193.97s WALL (    2136 calls)
     sum_band:bec :     10.88s CPU     10.90s WALL (    2136 calls)
     addusdens    :    801.31s CPU    908.47s WALL (     178 calls)
     addusd:skk   :      1.91s CPU      2.02s WALL (     712 calls)
     addusd:dgemm :    458.10s CPU    545.22s WALL (    1424 calls)
     addusd:qvan2 :    335.49s CPU    336.23s WALL (    1424 calls)
     Called by *cgdiagg:
     h_psi        :  12346.92s CPU  12609.89s WALL ( 1213815 calls)
     s_psi        :   8266.55s CPU   8304.11s WALL ( 2425522 calls)
     Called by h_psi:
     h_psi:calbec :   4941.30s CPU   5038.54s WALL ( 1213815 calls)
     vloc_psi     :   2584.58s CPU   2735.41s WALL ( 1213815 calls)
     add_vuspsi   :   4787.93s CPU   4805.31s WALL ( 1213815 calls)
     hs_1psi      :  12838.90s CPU  13072.52s WALL ( 1211707 calls)
     s_1psi       :   7095.93s CPU   7155.78s WALL ( 1211707 calls)
     General routines
     calbec       :  10110.21s CPU  10261.86s WALL ( 2428438 calls)
     fft          :     52.81s CPU     56.16s WALL (    5234 calls)
     ffts         :      0.96s CPU      1.02s WALL (     734 calls)
     fftw         :   2506.77s CPU   2659.52s WALL ( 3694006 calls)
     interpolate  :      4.83s CPU      5.10s WALL (     378 calls)
     Parallel routines
     fft_scatt_xy :    391.03s CPU    415.94s WALL ( 3699974 calls)
     fft_scatt_yz :    525.63s CPU    570.88s WALL ( 3699974 calls)
   This run was terminated on:   4:18: 9   3Oct2024            
