
     Program PWSCF v.6.7MaX starts on  6Dec2024 at 11:18:17 

     This program is part of the open-source Quantum ESPRESSO suite
     for quantum simulation of materials; please cite
         "P. Giannozzi et al., J. Phys.:Condens. Matter 21 395502 (2009);
         "P. Giannozzi et al., J. Phys.:Condens. Matter 29 465901 (2017);
          URL http://www.quantum-espresso.org", 
     in publications or presentations arising from this work. More details at
     http://www.quantum-espresso.org/quote

     Parallel version (MPI), running on     6 processors

     MPI processes distributed on     1 nodes
     R & G space division:  proc/nbgrp/npool/nimage =       6
     Waiting for input...
     Reading input from standard input

     Current dimensions of program PWSCF are:
     Max number of different atomic species (ntypx) = 10
     Max number of k-points (npk) =  40000
     Max angular momentum in pseudopotentials (lmaxx) =  3
     Message from routine iosys:
     BEWARE:  force calculation with tetrahedra (not recommanded)
     Message from routine iosys:
     BEWARE: stress calculation with tetrahedra (not recommanded)

     Subspace diagonalization in iterative solution of the eigenvalue problem:
     one sub-group per band group will be used
     scalapack distributed-memory algorithm (size of sub-group:  2*  2 procs)

     Found symmetry operation: I + ( -0.5000 -0.5000  0.0000)
     This is a supercell, fractional translations are disabled

     Parallelization info
     --------------------
     sticks:   dense  smooth     PW     G-vecs:    dense   smooth      PW
     Min         323     323     92                10704    10704    1632
     Max         324     324     93                10707    10707    1635
     Sum        1941    1941    553                64229    64229    9795



     bravais-lattice index     =            1
     lattice parameter (alat)  =      14.2485  a.u.
     unit-cell volume          =    2892.7482 (a.u.)^3
     number of atoms/cell      =           40
     number of atomic types    =            4
     number of electrons       =       392.00 (up: 196.00, down: 196.00)
     number of Kohn-Sham states=          200
     kinetic-energy cutoff     =      30.0000  Ry
     charge density cutoff     =     120.0000  Ry
     scf convergence threshold =      1.0E-07
     mixing beta               =       0.2000
     number of iterations used =            8  plain     mixing
     energy convergence thresh.=      1.0E-04
     force convergence thresh. =      1.0E-03
     press convergence thresh. =      5.0E-01
     Exchange-correlation=  SLA  PW   PBX  PBC
                           (   1   4   3   4   0   0   0)
     nstep                     =           50


     celldm(1)=  14.248535  celldm(2)=   0.000000  celldm(3)=   0.000000
     celldm(4)=   0.000000  celldm(5)=   0.000000  celldm(6)=   0.000000

     crystal axes: (cart. coord. in units of alat)
               a(1) = (   1.000000   0.000000   0.000000 )  
               a(2) = (   0.000000   1.000000   0.000000 )  
               a(3) = (   0.000000   0.000000   1.000000 )  

     reciprocal axes: (cart. coord. in units 2 pi/alat)
               b(1) = (  1.000000  0.000000  0.000000 )  
               b(2) = (  0.000000  1.000000  0.000000 )  
               b(3) = (  0.000000  0.000000  1.000000 )  


     PseudoPot. # 1 for O  read from file:
     /home/aldair1809/Programas/QE/q-e-qe-7.3/pseudo/o_pbe_v1.2.uspp.F.UPF
     MD5 check sum: 734c27235a0248c51dbae37a1fbe46ec
     Pseudo is Ultrasoft + core correction, Zval =  6.0
     Generated by new atomic code, or converted to UPF format
     Using radial grid of  737 points,  5 beta functions with: 
                l(1) =   0
                l(2) =   0
                l(3) =   1
                l(4) =   1
                l(5) =   2
     Q(r) pseudized with  8 coefficients,  rinner =    0.900   0.900   0.900
                                                       0.900   0.900

     PseudoPot. # 2 for Bi read from file:
     /home/aldair1809/Programas/QE/q-e-qe-7.3/pseudo/bi_pbe_v1.uspp.F.UPF
     MD5 check sum: cceb9f28ec65b6d7ff33140f5b0b1758
     Pseudo is Ultrasoft + core correction, Zval = 15.0
     Generated by new atomic code, or converted to UPF format
     Using radial grid of  899 points,  6 beta functions with: 
                l(1) =   0
                l(2) =   0
                l(3) =   1
                l(4) =   1
                l(5) =   2
                l(6) =   2
     Q(r) pseudized with  6 coefficients,  rinner =    1.000   1.000   1.000
                                                       1.000   1.000

     PseudoPot. # 3 for Fe read from file:
     /home/aldair1809/Programas/QE/q-e-qe-7.3/pseudo/fe_pbe_v1.5.uspp.F.UPF
     MD5 check sum: a130daea23fe5165f5d574ae7f82ed95
     Pseudo is Ultrasoft + core correction, Zval = 16.0
     Generated by new atomic code, or converted to UPF format
     Using radial grid of  861 points,  6 beta functions with: 
                l(1) =   0
                l(2) =   0
                l(3) =   1
                l(4) =   1
                l(5) =   2
                l(6) =   2
     Q(r) pseudized with  8 coefficients,  rinner =    1.000   1.000   1.000
                                                       1.000   1.000

     PseudoPot. # 4 for Fe read from file:
     /home/aldair1809/Programas/QE/q-e-qe-7.3/pseudo/fe_pbe_v1.5.uspp.F.UPF
     MD5 check sum: a130daea23fe5165f5d574ae7f82ed95
     Pseudo is Ultrasoft + core correction, Zval = 16.0
     Generated by new atomic code, or converted to UPF format
     Using radial grid of  861 points,  6 beta functions with: 
                l(1) =   0
                l(2) =   0
                l(3) =   1
                l(4) =   1
                l(5) =   2
                l(6) =   2
     Q(r) pseudized with  8 coefficients,  rinner =    1.000   1.000   1.000
                                                       1.000   1.000

     atomic species   valence    mass     pseudopotential
        O              6.00    15.99940     O ( 1.00)
        Bi            15.00   208.98040     Bi( 1.00)
        Fe1           16.00    55.84500     Fe( 1.00)
        Fe2           16.00    55.84500     Fe( 1.00)

     Starting magnetic structure 
     atomic species   magnetization
        O            0.000
        Bi           0.000
        Fe1         -0.800
        Fe2          0.800

      8 Sym. Ops., with inversion, found



   Cartesian axes

     site n.     atom                  positions (alat units)
         1           Bi  tau(   1) = (   0.0000000   0.0000000   0.0000000  )
         2           Bi  tau(   2) = (   0.5000000   0.5000000   0.0000000  )
         3           Bi  tau(   3) = (   0.5000000   0.0000000   0.0000000  )
         4           Bi  tau(   4) = (   0.0000000   0.5000000   0.5000000  )
         5           Bi  tau(   5) = (   0.0000000   0.0000000   0.5000000  )
         6           Bi  tau(   6) = (   0.5000000   0.5000000   0.5000000  )
         7           Bi  tau(   7) = (   0.5000000   0.0000000   0.5000000  )
         8           Bi  tau(   8) = (   0.0000000   0.5000000   0.0000000  )
         9           Fe2 tau(   9) = (   0.2500000   0.2500000   0.2500000  )
        10           Fe2 tau(  10) = (   0.7500000   0.7500000   0.2500000  )
        11           Fe1 tau(  11) = (   0.7500000   0.2500000   0.2500000  )
        12           Fe1 tau(  12) = (   0.2500000   0.7500000   0.7500000  )
        13           Fe2 tau(  13) = (   0.2500000   0.2500000   0.7500000  )
        14           Fe2 tau(  14) = (   0.7500000   0.7500000   0.7500000  )
        15           Fe1 tau(  15) = (   0.7500000   0.2500000   0.7500000  )
        16           Fe1 tau(  16) = (   0.2500000   0.7500000   0.2500000  )
        17           O   tau(  17) = (   0.2500000   0.2500000   0.0000000  )
        18           O   tau(  18) = (   0.2500000   0.0000000   0.2500000  )
        19           O   tau(  19) = (   0.0000000   0.2500000   0.2500000  )
        20           O   tau(  20) = (   0.7500000   0.7500000   0.0000000  )
        21           O   tau(  21) = (   0.7500000   0.2500000   0.0000000  )
        22           O   tau(  22) = (   0.2500000   0.7500000   0.5000000  )
        23           O   tau(  23) = (   0.2500000   0.2500000   0.5000000  )
        24           O   tau(  24) = (   0.7500000   0.7500000   0.5000000  )
        25           O   tau(  25) = (   0.7500000   0.2500000   0.5000000  )
        26           O   tau(  26) = (   0.2500000   0.7500000   0.0000000  )
        27           O   tau(  27) = (   0.7500000   0.5000000   0.2500000  )
        28           O   tau(  28) = (   0.7500000   0.0000000   0.2500000  )
        29           O   tau(  29) = (   0.2500000   0.5000000   0.7500000  )
        30           O   tau(  30) = (   0.2500000   0.0000000   0.7500000  )
        31           O   tau(  31) = (   0.7500000   0.5000000   0.7500000  )
        32           O   tau(  32) = (   0.7500000   0.0000000   0.7500000  )
        33           O   tau(  33) = (   0.2500000   0.5000000   0.2500000  )
        34           O   tau(  34) = (   0.5000000   0.7500000   0.2500000  )
        35           O   tau(  35) = (   0.5000000   0.2500000   0.2500000  )
        36           O   tau(  36) = (   0.0000000   0.7500000   0.7500000  )
        37           O   tau(  37) = (   0.0000000   0.2500000   0.7500000  )
        38           O   tau(  38) = (   0.5000000   0.7500000   0.7500000  )
        39           O   tau(  39) = (   0.5000000   0.2500000   0.7500000  )
        40           O   tau(  40) = (   0.0000000   0.7500000   0.2500000  )

     number of k points=     6 (tetrahedron method)
                       cart. coord. in units 2pi/alat
        k(    1) = (   0.0000000   0.0000000   0.0000000), wk =   0.1250000
        k(    2) = (   0.0000000   0.0000000  -0.5000000), wk =   0.1250000
        k(    3) = (   0.0000000  -0.5000000  -0.5000000), wk =   0.2500000
        k(    4) = (  -0.5000000  -0.5000000  -0.5000000), wk =   0.1250000
        k(    5) = (  -0.5000000   0.0000000   0.0000000), wk =   0.2500000
        k(    6) = (  -0.5000000   0.5000000   0.0000000), wk =   0.1250000

     Dense  grid:    64229 G-vectors     FFT dimensions: (  50,  50,  50)

     Estimated max dynamical RAM per process >     125.60 MB

     Estimated total dynamical RAM >     753.57 MB

     Atomic positions and unit cell read from directory:
     /home/aldair1809/Documentos/QE/4BFO/geom_opt_cubic/bifeo3-relax.save/


     Check: negative core charge=   -0.000269
     Generating pointlists ...
     new r_m :   0.1031 (alat units)  1.4694 (a.u.) for type    1
     new r_m :   0.1458 (alat units)  2.0780 (a.u.) for type    2
     new r_m :   0.1031 (alat units)  1.4694 (a.u.) for type    3
     new r_m :   0.1031 (alat units)  1.4694 (a.u.) for type    4

     The initial density is read from file :
     /home/aldair1809/Documentos/QE/4BFO/geom_opt_cubic/bifeo3-relax.save/charge-density


     negative rho (up, down):  1.531E-01 1.530E-01
     Starting wfcs from file

     total cpu time spent up to now is        4.5 secs

     Self-consistent Calculation

     iteration #  1     ecut=    30.00 Ry     beta= 0.20
     CG style diagonalization
     c_bands:  3 eigenvalues not converged
     c_bands:  3 eigenvalues not converged
     c_bands:  2 eigenvalues not converged
     c_bands:  5 eigenvalues not converged
     c_bands:  2 eigenvalues not converged
     c_bands:  1 eigenvalues not converged
     c_bands:  3 eigenvalues not converged
     c_bands:  2 eigenvalues not converged
