
     Program PWSCF v.6.7MaX starts on  2Oct2024 at 19: 2:56 

     This program is part of the open-source Quantum ESPRESSO suite
     for quantum simulation of materials; please cite
         "P. Giannozzi et al., J. Phys.:Condens. Matter 21 395502 (2009);
         "P. Giannozzi et al., J. Phys.:Condens. Matter 29 465901 (2017);
          URL http://www.quantum-espresso.org", 
     in publications or presentations arising from this work. More details at
     http://www.quantum-espresso.org/quote

     Parallel version (MPI), running on     4 processors

     MPI processes distributed on     1 nodes
     R & G space division:  proc/nbgrp/npool/nimage =       4
     Waiting for input...
     Reading input from standard input

     Current dimensions of program PWSCF are:
     Max number of different atomic species (ntypx) = 10
     Max number of k-points (npk) =  40000
     Max angular momentum in pseudopotentials (lmaxx) =  3
     Message from routine iosys:
     wrong startingpot: use default (1)

     Subspace diagonalization in iterative solution of the eigenvalue problem:
     one sub-group per band group will be used
     scalapack distributed-memory algorithm (size of sub-group:  2*  2 procs)


     Parallelization info
     --------------------
     sticks:   dense  smooth     PW     G-vecs:    dense   smooth      PW
     Min         583     232     65                56955    14417    2229
     Max         584     233     67                56968    14421    2235
     Sum        2335     931    265               227853    57675    8929



     bravais-lattice index     =            4
     lattice parameter (alat)  =      10.6119  a.u.
     unit-cell volume          =    2595.2065 (a.u.)^3
     number of atoms/cell      =           30
     number of atomic types    =            4
     number of electrons       =       294.00 (up: 147.00, down: 147.00)
     number of Kohn-Sham states=          200
     kinetic-energy cutoff     =      30.0000  Ry
     charge density cutoff     =     300.0000  Ry
     scf convergence threshold =      1.0E-05
     mixing beta               =       0.2000
     number of iterations used =            8  plain     mixing
     energy convergence thresh.=      1.0E-04
     force convergence thresh. =      1.0E-03
     press convergence thresh. =      5.0E-01
     Exchange-correlation=  SLA  PW   PBX  PBC
                           (   1   4   3   4   0   0   0)
     nstep                     =           50


     celldm(1)=  10.611940  celldm(2)=   0.000000  celldm(3)=   2.507593
     celldm(4)=   0.000000  celldm(5)=   0.000000  celldm(6)=   0.000000

     crystal axes: (cart. coord. in units of alat)
               a(1) = (   1.000000   0.000000   0.000000 )  
               a(2) = (  -0.500000   0.866025   0.000000 )  
               a(3) = (   0.000000   0.000000   2.507593 )  

     reciprocal axes: (cart. coord. in units 2 pi/alat)
               b(1) = (  1.000000  0.577350 -0.000000 )  
               b(2) = (  0.000000  1.154701  0.000000 )  
               b(3) = (  0.000000 -0.000000  0.398789 )  


     PseudoPot. # 1 for O  read from file:
     /home/aldair1809/Programas/QE/q-e-qe-7.3/pseudo/o_pbe_v1.2.uspp.F.UPF
     MD5 check sum: 734c27235a0248c51dbae37a1fbe46ec
     Pseudo is Ultrasoft + core correction, Zval =  6.0
     Generated by new atomic code, or converted to UPF format
     Using radial grid of  737 points,  5 beta functions with: 
                l(1) =   0
                l(2) =   0
                l(3) =   1
                l(4) =   1
                l(5) =   2
     Q(r) pseudized with  8 coefficients,  rinner =    0.900   0.900   0.900
                                                       0.900   0.900

     PseudoPot. # 2 for Bi read from file:
     /home/aldair1809/Programas/QE/q-e-qe-7.3/pseudo/bi_pbe_v1.uspp.F.UPF
     MD5 check sum: cceb9f28ec65b6d7ff33140f5b0b1758
     Pseudo is Ultrasoft + core correction, Zval = 15.0
     Generated by new atomic code, or converted to UPF format
     Using radial grid of  899 points,  6 beta functions with: 
                l(1) =   0
                l(2) =   0
                l(3) =   1
                l(4) =   1
                l(5) =   2
                l(6) =   2
     Q(r) pseudized with  6 coefficients,  rinner =    1.000   1.000   1.000
                                                       1.000   1.000

     PseudoPot. # 3 for Fe read from file:
     /home/aldair1809/Programas/QE/q-e-qe-7.3/pseudo/fe_pbe_v1.5.uspp.F.UPF
     MD5 check sum: a130daea23fe5165f5d574ae7f82ed95
     Pseudo is Ultrasoft + core correction, Zval = 16.0
     Generated by new atomic code, or converted to UPF format
     Using radial grid of  861 points,  6 beta functions with: 
                l(1) =   0
                l(2) =   0
                l(3) =   1
                l(4) =   1
                l(5) =   2
                l(6) =   2
     Q(r) pseudized with  8 coefficients,  rinner =    1.000   1.000   1.000
                                                       1.000   1.000

     PseudoPot. # 4 for Fe read from file:
     /home/aldair1809/Programas/QE/q-e-qe-7.3/pseudo/fe_pbe_v1.5.uspp.F.UPF
     MD5 check sum: a130daea23fe5165f5d574ae7f82ed95
     Pseudo is Ultrasoft + core correction, Zval = 16.0
     Generated by new atomic code, or converted to UPF format
     Using radial grid of  861 points,  6 beta functions with: 
                l(1) =   0
                l(2) =   0
                l(3) =   1
                l(4) =   1
                l(5) =   2
                l(6) =   2
     Q(r) pseudized with  8 coefficients,  rinner =    1.000   1.000   1.000
                                                       1.000   1.000

     atomic species   valence    mass     pseudopotential
        O              6.00    15.99940     O ( 1.00)
        Bi            15.00   208.98040     Bi( 1.00)
        Fe1           16.00    55.84500     Fe( 1.00)
        Fe2           16.00    55.84500     Fe( 1.00)

     Starting magnetic structure 
     atomic species   magnetization
        O            0.000
        Bi           0.000
        Fe1         -0.800
        Fe2          0.800

      3 Sym. Ops. (no inversion) found


                                    s                        frac. trans.

      isym =  1     identity                                     

 cryst.   s( 1) = (     1          0          0      )
                  (     0          1          0      )
                  (     0          0          1      )

 cart.    s( 1) = (  1.0000000  0.0000000  0.0000000 )
                  (  0.0000000  1.0000000  0.0000000 )
                  (  0.0000000  0.0000000  1.0000000 )


      isym =  2     120 deg rotation - cryst. axis [0,0,1]       

 cryst.   s( 2) = (     0          1          0      )
                  (    -1         -1          0      )
                  (     0          0          1      )

 cart.    s( 2) = ( -0.5000000 -0.8660254  0.0000000 )
                  (  0.8660254 -0.5000000  0.0000000 )
                  (  0.0000000  0.0000000  1.0000000 )


      isym =  3     120 deg rotation - cryst. axis [0,0,-1]      

 cryst.   s( 3) = (    -1         -1          0      )
                  (     1          0          0      )
                  (     0          0          1      )

 cart.    s( 3) = ( -0.5000000  0.8660254  0.0000000 )
                  ( -0.8660254 -0.5000000  0.0000000 )
                  (  0.0000000  0.0000000  1.0000000 )


     point group C_3 (3)    
     there are  3 classes
     the character table:

       E     C3    C3^2 
A      1.00  1.00  1.00
E      1.00 -0.50 -0.50
E*     1.00 -0.50 -0.50
     imaginary part
A      0.00  0.00  0.00
E      0.00  0.87 -0.87
E*     0.00 -0.87  0.87

     the symmetry operations in each class and the name of the first element:

     E        1
          identity                                               
     C3       2
          120 deg rotation - cryst. axis [0,0,1]                 
     C3^2     3
          120 deg rotation - cryst. axis [0,0,-1]                

   Cartesian axes

     site n.     atom                  positions (alat units)
         1           Fe1 tau(   1) = (   0.0000000   0.0000000   1.9478107  )
         2           Fe1 tau(   2) = (  -0.0000005   0.5773506   2.3729494  )
         3           Fe1 tau(   3) = (   0.5000005   0.2886748   1.5274126  )
         4           Fe2 tau(   4) = (   0.5000005   0.2886748   0.2735761  )
         5           Fe2 tau(   5) = (   0.0000000   0.0000000   0.6940396  )
         6           Fe2 tau(   6) = (  -0.0000005   0.5773506   1.1191187  )
         7           Bi  tau(   7) = (   0.5000005   0.2886748   2.0943705  )
         8           Bi  tau(   8) = (  -0.0000005   0.5773506   1.6794620  )
         9           Bi  tau(   9) = (  -0.0000005   0.5773506   0.4255883  )
        10           Bi  tau(  10) = (   0.0000000   0.0000000   0.0002835  )
        11           Bi  tau(  11) = (   0.0000000   0.0000000   1.2541243  )
        12           Bi  tau(  12) = (   0.5000005   0.2886748   0.8405223  )
        13           O   tau(  13) = (  -0.3105904   0.6551932   2.2117497  )
        14           O   tau(  14) = (   0.0878817   0.2694488   2.2117497  )
        15           O   tau(  15) = (   0.2227102   0.8074080   2.2117497  )
        16           O   tau(  16) = (   0.4087504   0.5589755   1.7932577  )
        17           O   tau(  17) = (   0.3115373   0.0745013   1.7932577  )
        18           O   tau(  18) = (   0.7797108   0.2325494   1.7932577  )
        19           O   tau(  19) = (   0.6884743   0.0745026   0.5394144  )
        20           O   tau(  20) = (   0.5912412   0.5589858   0.5394144  )
        21           O   tau(  21) = (   0.2202830   0.2325379   0.5394144  )
        22           O   tau(  22) = (  -0.0823010   0.8482993   0.1171819  )
        23           O   tau(  23) = (  -0.1934983   0.3706010   0.1171819  )
        24           O   tau(  24) = (   0.2757993   0.5131505   0.1171819  )
        25           O   tau(  25) = (   0.1934855   0.3705936   1.3710260  )
        26           O   tau(  26) = (   0.0823138   0.8482919   1.3710260  )
        27           O   tau(  27) = (  -0.2757993   0.5131653   1.3710260  )
        28           O   tau(  28) = (  -0.0878870   0.2694458   0.9579683  )
        29           O   tau(  29) = (   0.3105971   0.6551893   0.9579683  )
        30           O   tau(  30) = (  -0.2227086   0.8074149   0.9579683  )

   Crystallographic axes

     site n.     atom                  positions (cryst. coord.)
         1           Fe1 tau(   1) = (  0.0000000  0.0000000  0.7767652  )
         2           Fe1 tau(   2) = (  0.3333330  0.6666670  0.9463058  )
         3           Fe1 tau(   3) = (  0.6666670  0.3333330  0.6091152  )
         4           Fe2 tau(   4) = (  0.6666670  0.3333330  0.1090991  )
         5           Fe2 tau(   5) = (  0.0000000  0.0000000  0.2767753  )
         6           Fe2 tau(   6) = (  0.3333330  0.6666670  0.4462921  )
         7           Bi  tau(   7) = (  0.6666670  0.3333330  0.8352117  )
         8           Bi  tau(   8) = (  0.3333330  0.6666670  0.6697508  )
         9           Bi  tau(   9) = (  0.3333330  0.6666670  0.1697199  )
        10           Bi  tau(  10) = (  0.0000000  0.0000000  0.0001130  )
        11           Bi  tau(  11) = (  0.0000000  0.0000000  0.5001308  )
        12           Bi  tau(  12) = (  0.6666670  0.3333330  0.3351910  )
        13           O   tau(  13) = (  0.0676856  0.7565520  0.8820212  )
        14           O   tau(  14) = (  0.2434480  0.3111326  0.8820212  )
        15           O   tau(  15) = (  0.6888674  0.9323144  0.8820212  )
        16           O   tau(  16) = (  0.7314750  0.6454493  0.7151312  )
        17           O   tau(  17) = (  0.3545507  0.0860267  0.7151312  )
        18           O   tau(  18) = (  0.9139733  0.2685250  0.7151312  )
        19           O   tau(  19) = (  0.7314884  0.0860282  0.2151125  )
        20           O   tau(  20) = (  0.9139718  0.6454612  0.2151125  )
        21           O   tau(  21) = (  0.3545388  0.2685116  0.2151125  )
        22           O   tau(  22) = (  0.4074649  0.9795317  0.0467309  )
        23           O   tau(  23) = (  0.0204683  0.4279331  0.0467309  )
        24           O   tau(  24) = (  0.5720669  0.5925351  0.0467309  )
        25           O   tau(  25) = (  0.4074478  0.4279246  0.5467499  )
        26           O   tau(  26) = (  0.5720754  0.9795232  0.5467499  )
        27           O   tau(  27) = (  0.0204768  0.5925522  0.5467499  )
        28           O   tau(  28) = (  0.0676776  0.3111292  0.3820271  )
        29           O   tau(  29) = (  0.6888708  0.7565474  0.3820271  )
        30           O   tau(  30) = (  0.2434526  0.9323225  0.3820271  )

     number of k points=     6  Methfessel-Paxton smearing, width (Ry)=  0.0100
                       cart. coord. in units 2pi/alat
        k(    1) = (   0.0000000   0.0000000   0.0000000), wk =   0.0555556
        k(    2) = (   0.0000000   0.0000000  -0.1993944), wk =   0.0555556
        k(    3) = (   0.0000000   0.3849002   0.0000000), wk =   0.3333333
        k(    4) = (   0.0000000   0.3849002  -0.1993944), wk =   0.3333333
        k(    5) = (   0.3333333   0.5773503   0.0000000), wk =   0.1111111
        k(    6) = (   0.3333333   0.5773503  -0.1993944), wk =   0.1111111

                       cryst. coord.
        k(    1) = (   0.0000000   0.0000000   0.0000000), wk =   0.0555556
        k(    2) = (   0.0000000   0.0000000  -0.5000000), wk =   0.0555556
        k(    3) = (   0.0000000   0.3333333   0.0000000), wk =   0.3333333
        k(    4) = (   0.0000000   0.3333333  -0.5000000), wk =   0.3333333
        k(    5) = (   0.3333333   0.3333333   0.0000000), wk =   0.1111111
        k(    6) = (   0.3333333   0.3333333  -0.5000000), wk =   0.1111111

     Dense  grid:   227853 G-vectors     FFT dimensions: (  60,  60, 150)

     Smooth grid:    57675 G-vectors     FFT dimensions: (  40,  40,  96)

     Dynamical RAM for                 wfc:       5.49 MB

     Dynamical RAM for     wfc (w. buffer):      71.41 MB

     Dynamical RAM for           str. fact:       3.48 MB

     Dynamical RAM for           local pot:       0.00 MB

     Dynamical RAM for          nlocal pot:      12.36 MB

     Dynamical RAM for                qrad:      11.13 MB

     Dynamical RAM for          rho,v,vnew:      11.48 MB

     Dynamical RAM for               rhoin:       3.83 MB

     Dynamical RAM for            rho*nmix:      27.82 MB

     Dynamical RAM for           G-vectors:       3.37 MB

     Dynamical RAM for          h,s,v(r/c):       0.46 MB

     Dynamical RAM for          <psi|beta>:       1.37 MB

     Dynamical RAM for      wfcinit/wfcrot:      12.16 MB

     Dynamical RAM for           addusdens:     178.20 MB

     Dynamical RAM for          addusforce:     207.89 MB

     Dynamical RAM for         addusstress:     176.03 MB

     Estimated static dynamical RAM per process >     155.47 MB

     Estimated max dynamical RAM per process >     363.37 MB

     Estimated total dynamical RAM >       1.42 GB

     Check: negative core charge=   -0.000018
     Generating pointlists ...
     new r_m :   0.1459 (alat units)  1.5484 (a.u.) for type    1
     new r_m :   0.1691 (alat units)  1.7943 (a.u.) for type    2
     new r_m :   0.1459 (alat units)  1.5484 (a.u.) for type    3
     new r_m :   0.1459 (alat units)  1.5484 (a.u.) for type    4

     Initial potential from superposition of free atoms

     starting charge  281.99969, renormalised to  294.00000

     negative rho (up, down):  1.268E-01 1.268E-01
     Starting wfcs are  204 randomized atomic wfcs

     total cpu time spent up to now is       37.6 secs

     Self-consistent Calculation

     iteration #  1     ecut=    30.00 Ry     beta= 0.20
     CG style diagonalization
     ethr =  1.00E-02,  avg # of iterations =  2.6

     negative rho (up, down):  1.227E-01 1.227E-01

     total cpu time spent up to now is      144.3 secs

     total energy              =   -3189.13491440 Ry
     estimated scf accuracy    <      22.87192352 Ry

     total magnetization       =    -0.00 Bohr mag/cell
     absolute magnetization    =    30.58 Bohr mag/cell

     iteration #  2     ecut=    30.00 Ry     beta= 0.20
     CG style diagonalization
     ethr =  7.78E-03,  avg # of iterations =  3.0

     negative rho (up, down):  1.185E-01 1.185E-01

     total cpu time spent up to now is      276.7 secs

     total energy              =   -3191.96028230 Ry
     estimated scf accuracy    <       9.45498102 Ry

     total magnetization       =     0.00 Bohr mag/cell
     absolute magnetization    =    29.78 Bohr mag/cell

     iteration #  3     ecut=    30.00 Ry     beta= 0.20
     CG style diagonalization
     ethr =  3.22E-03,  avg # of iterations =  3.1

     negative rho (up, down):  1.193E-01 1.193E-01

     total cpu time spent up to now is      413.1 secs

     total energy              =   -3193.28397986 Ry
     estimated scf accuracy    <       4.58088450 Ry

     total magnetization       =    -0.00 Bohr mag/cell
     absolute magnetization    =    28.21 Bohr mag/cell

     iteration #  4     ecut=    30.00 Ry     beta= 0.20
     CG style diagonalization
     ethr =  1.56E-03,  avg # of iterations =  3.0

     negative rho (up, down):  1.176E-01 1.176E-01

     total cpu time spent up to now is      549.0 secs

     total energy              =   -3194.64809187 Ry
     estimated scf accuracy    <       1.98711765 Ry

     total magnetization       =     0.00 Bohr mag/cell
     absolute magnetization    =    29.03 Bohr mag/cell

     iteration #  5     ecut=    30.00 Ry     beta= 0.20
     CG style diagonalization
     ethr =  6.76E-04,  avg # of iterations =  3.2

     negative rho (up, down):  1.174E-01 1.174E-01

     total cpu time spent up to now is      691.8 secs

     total energy              =   -3194.70174473 Ry
     estimated scf accuracy    <       0.28922578 Ry

     total magnetization       =     0.00 Bohr mag/cell
     absolute magnetization    =    28.15 Bohr mag/cell

     iteration #  6     ecut=    30.00 Ry     beta= 0.20
     CG style diagonalization
     c_bands:  1 eigenvalues not converged
     c_bands:  1 eigenvalues not converged
     c_bands:  1 eigenvalues not converged
     ethr =  9.84E-05,  avg # of iterations =  3.9

     negative rho (up, down):  1.177E-01 1.177E-01

     total cpu time spent up to now is      866.0 secs

     total energy              =   -3194.43554099 Ry
     estimated scf accuracy    <       3.30447094 Ry

     total magnetization       =     0.00 Bohr mag/cell
     absolute magnetization    =    24.49 Bohr mag/cell

     iteration #  7     ecut=    30.00 Ry     beta= 0.20
     CG style diagonalization
     ethr =  9.84E-05,  avg # of iterations =  3.6

     negative rho (up, down):  1.182E-01 1.182E-01

     total cpu time spent up to now is     1023.4 secs

     total energy              =   -3194.84675764 Ry
     estimated scf accuracy    <       0.14049814 Ry

     total magnetization       =    -0.00 Bohr mag/cell
     absolute magnetization    =    27.85 Bohr mag/cell

     iteration #  8     ecut=    30.00 Ry     beta= 0.20
     CG style diagonalization
     c_bands:  1 eigenvalues not converged
     c_bands:  1 eigenvalues not converged
     ethr =  4.78E-05,  avg # of iterations =  3.1

     negative rho (up, down):  1.184E-01 1.184E-01

     total cpu time spent up to now is     1160.1 secs

     total energy              =   -3194.84584120 Ry
     estimated scf accuracy    <       0.19015637 Ry

     total magnetization       =    -0.00 Bohr mag/cell
     absolute magnetization    =    27.89 Bohr mag/cell

     iteration #  9     ecut=    30.00 Ry     beta= 0.20
     CG style diagonalization
     ethr =  4.78E-05,  avg # of iterations =  3.0

     negative rho (up, down):  1.186E-01 1.186E-01

     total cpu time spent up to now is     1293.4 secs

     total energy              =   -3194.82691467 Ry
     estimated scf accuracy    <       0.14778705 Ry

     total magnetization       =    -0.00 Bohr mag/cell
     absolute magnetization    =    27.85 Bohr mag/cell

     iteration # 10     ecut=    30.00 Ry     beta= 0.20
     CG style diagonalization
     ethr =  4.78E-05,  avg # of iterations =  3.0

     negative rho (up, down):  1.188E-01 1.188E-01

     total cpu time spent up to now is     1426.4 secs

     total energy              =   -3194.82060482 Ry
     estimated scf accuracy    <       0.04343533 Ry

     total magnetization       =     0.00 Bohr mag/cell
     absolute magnetization    =    27.75 Bohr mag/cell

     iteration # 11     ecut=    30.00 Ry     beta= 0.20
     CG style diagonalization
     c_bands:  1 eigenvalues not converged
     c_bands:  1 eigenvalues not converged
     ethr =  1.48E-05,  avg # of iterations =  3.1

     negative rho (up, down):  1.187E-01 1.187E-01

     total cpu time spent up to now is     1565.4 secs

     total energy              =   -3194.82529496 Ry
     estimated scf accuracy    <       0.00176711 Ry

     total magnetization       =    -0.00 Bohr mag/cell
     absolute magnetization    =    27.67 Bohr mag/cell

     iteration # 12     ecut=    30.00 Ry     beta= 0.20
     CG style diagonalization
     c_bands:  3 eigenvalues not converged
     c_bands:  1 eigenvalues not converged
     c_bands:  1 eigenvalues not converged
     c_bands:  1 eigenvalues not converged
     c_bands:  3 eigenvalues not converged
     c_bands:  1 eigenvalues not converged
     c_bands:  1 eigenvalues not converged
     c_bands:  1 eigenvalues not converged
     ethr =  6.01E-07,  avg # of iterations =  3.7

     negative rho (up, down):  1.186E-01 1.186E-01

     total cpu time spent up to now is     1731.5 secs

     total energy              =   -3194.82602504 Ry
     estimated scf accuracy    <       0.00088848 Ry

     total magnetization       =     0.00 Bohr mag/cell
     absolute magnetization    =    27.66 Bohr mag/cell

     iteration # 13     ecut=    30.00 Ry     beta= 0.20
     CG style diagonalization
     c_bands:  2 eigenvalues not converged
     c_bands:  1 eigenvalues not converged
     c_bands:  1 eigenvalues not converged
     c_bands:  1 eigenvalues not converged
     c_bands:  1 eigenvalues not converged
     ethr =  3.02E-07,  avg # of iterations =  3.1

     negative rho (up, down):  1.186E-01 1.186E-01

     total cpu time spent up to now is     1869.4 secs

     total energy              =   -3194.82636868 Ry
     estimated scf accuracy    <       0.00027713 Ry

     total magnetization       =    -0.00 Bohr mag/cell
     absolute magnetization    =    27.67 Bohr mag/cell

     iteration # 14     ecut=    30.00 Ry     beta= 0.20
     CG style diagonalization
     ethr =  9.43E-08,  avg # of iterations =  3.4

     negative rho (up, down):  1.186E-01 1.186E-01

     total cpu time spent up to now is     2020.3 secs

     total energy              =   -3194.82649190 Ry
     estimated scf accuracy    <       0.00007463 Ry

     total magnetization       =     0.00 Bohr mag/cell
     absolute magnetization    =    27.70 Bohr mag/cell

     iteration # 15     ecut=    30.00 Ry     beta= 0.20
     CG style diagonalization
     ethr =  2.54E-08,  avg # of iterations =  3.1

     negative rho (up, down):  1.186E-01 1.186E-01

     total cpu time spent up to now is     2155.6 secs

     total energy              =   -3194.82654452 Ry
     estimated scf accuracy    <       0.00004303 Ry

     total magnetization       =    -0.00 Bohr mag/cell
     absolute magnetization    =    27.71 Bohr mag/cell

     iteration # 16     ecut=    30.00 Ry     beta= 0.20
     CG style diagonalization
     ethr =  1.46E-08,  avg # of iterations =  3.4

     negative rho (up, down):  1.186E-01 1.186E-01

     total cpu time spent up to now is     2304.3 secs

     total energy              =   -3194.82658093 Ry
     estimated scf accuracy    <       0.00002367 Ry

     total magnetization       =    -0.00 Bohr mag/cell
     absolute magnetization    =    27.72 Bohr mag/cell

     iteration # 17     ecut=    30.00 Ry     beta= 0.20
     CG style diagonalization
     ethr =  8.05E-09,  avg # of iterations =  3.3

     negative rho (up, down):  1.186E-01 1.186E-01

     Magnetic moment per site:
     atom:    1    charge:   13.0313    magn:   -3.7355    constr:    0.0000
     atom:    2    charge:   13.0386    magn:   -3.6260    constr:    0.0000
     atom:    3    charge:   13.0508    magn:   -3.6166    constr:    0.0000
     atom:    4    charge:   13.0503    magn:    3.6169    constr:    0.0000
     atom:    5    charge:   13.0313    magn:    3.7354    constr:    0.0000
     atom:    6    charge:   13.0394    magn:    3.6254    constr:    0.0000
     atom:    7    charge:   10.5542    magn:   -0.0146    constr:    0.0000
     atom:    8    charge:   10.5539    magn:   -0.0117    constr:    0.0000
     atom:    9    charge:   10.5539    magn:    0.0117    constr:    0.0000
     atom:   10    charge:   10.5533    magn:   -0.0031    constr:    0.0000
     atom:   11    charge:   10.5533    magn:    0.0031    constr:    0.0000
     atom:   12    charge:   10.5542    magn:    0.0146    constr:    0.0000
     atom:   13    charge:    5.4121    magn:   -0.2163    constr:    0.0000
     atom:   14    charge:    5.4121    magn:   -0.2163    constr:    0.0000
     atom:   15    charge:    5.4121    magn:   -0.2163    constr:    0.0000
     atom:   16    charge:    5.4107    magn:   -0.2294    constr:    0.0000
     atom:   17    charge:    5.4107    magn:   -0.2294    constr:    0.0000
     atom:   18    charge:    5.4107    magn:   -0.2294    constr:    0.0000
     atom:   19    charge:    5.4105    magn:    0.2294    constr:    0.0000
     atom:   20    charge:    5.4105    magn:    0.2294    constr:    0.0000
     atom:   21    charge:    5.4105    magn:    0.2294    constr:    0.0000
     atom:   22    charge:    5.4025    magn:    0.0739    constr:    0.0000
     atom:   23    charge:    5.4025    magn:    0.0739    constr:    0.0000
     atom:   24    charge:    5.4025    magn:    0.0739    constr:    0.0000
     atom:   25    charge:    5.4024    magn:   -0.0739    constr:    0.0000
     atom:   26    charge:    5.4024    magn:   -0.0739    constr:    0.0000
     atom:   27    charge:    5.4024    magn:   -0.0739    constr:    0.0000
     atom:   28    charge:    5.4120    magn:    0.2165    constr:    0.0000
     atom:   29    charge:    5.4120    magn:    0.2165    constr:    0.0000
     atom:   30    charge:    5.4120    magn:    0.2165    constr:    0.0000

     total cpu time spent up to now is     2448.5 secs

     End of self-consistent calculation

 ------ SPIN UP ------------


          k = 0.0000 0.0000 0.0000 (  7259 PWs)   bands (ev):

   -79.7026 -79.5124 -79.4028 -74.7335 -74.6914 -74.6042 -45.6930 -45.6472
   -45.6472 -45.4764 -45.4740 -45.4740 -45.4451 -45.3334 -45.3334 -40.8573
   -40.8113 -40.8112 -40.8109 -40.7700 -40.7700 -40.7333 -40.6858 -40.6858
   -11.6644 -11.6644 -11.6350 -11.6350 -11.6121 -11.6121 -11.5949 -11.5831
   -11.5707 -11.5707 -11.5667 -11.5667 -11.5599 -11.5599 -11.5357 -11.5230
   -11.5172 -11.5172 -11.5113 -11.5113 -11.5064 -11.5064 -11.5007 -11.4972
   -11.4972 -11.4893 -11.4761 -11.4761 -11.4633 -11.4633  -8.1089  -7.7400
    -7.6449  -6.9300  -6.8694  -6.5007  -6.5006  -6.3739  -6.3739  -6.3680
    -6.2775  -6.2775  -6.1880  -6.1879  -6.0182  -6.0181  -5.8609  -5.8609
     0.4940   0.7290   0.8073   1.5487   1.6774   2.3725   4.7166   4.7166
     4.8002   5.1977   5.1977   5.2657   5.3060   5.3060   5.4528   5.4906
     5.4906   5.6786   5.7567   5.7567   5.9499   5.9500   5.9782   6.1310
     6.1576   6.1577   6.2377   6.4607   6.4607   6.7110   6.7110   6.8597
     7.0204   7.3237   7.3238   7.3850   7.5461   7.5462   7.6479   7.6479
     7.8204   7.9478   8.0187   8.0188   8.1757   8.1757   8.1946   8.3148
     8.3258   8.3259   8.4884   8.4884   8.6449   8.6449   8.9846   8.9847
     8.9914   9.0390   9.0390   9.1048   9.1048   9.4531   9.4532   9.7482
     9.8332   9.8332   9.8931  10.0700  10.1414  10.2704  10.3302  10.5269
    10.5269  11.1567  11.1567  11.7274  11.7274  11.9331  11.9331  11.9382
    11.9871  12.0406  12.0782  12.0782  12.8484  12.8485  13.4784  13.4784
    14.0186  14.0187  14.5757  14.6925  14.7934  14.8425  15.8546  15.8546
    15.9965  15.9965  16.0398  16.0398  16.2937  16.3519  16.5823  16.5823
    16.6556  16.6556  17.0630  17.0630  17.6753  19.0640  19.2095  19.3627
    20.1783  20.1783  20.4059  20.4910  21.1582  21.1583  21.2643  21.2644
    21.6177  21.6178  22.2626  22.3670  22.4882  22.4883  22.6352  23.0815

     occupation numbers 
     1.0000   1.0000   1.0000   1.0000   1.0000   1.0000   1.0000   1.0000
     1.0000   1.0000   1.0000   1.0000   1.0000   1.0000   1.0000   1.0000
     1.0000   1.0000   1.0000   1.0000   1.0000   1.0000   1.0000   1.0000
     1.0000   1.0000   1.0000   1.0000   1.0000   1.0000   1.0000   1.0000
     1.0000   1.0000   1.0000   1.0000   1.0000   1.0000   1.0000   1.0000
     1.0000   1.0000   1.0000   1.0000   1.0000   1.0000   1.0000   1.0000
     1.0000   1.0000   1.0000   1.0000   1.0000   1.0000   1.0000   1.0000
     1.0000   1.0000   1.0000   1.0000   1.0000   1.0000   1.0000   1.0000
     1.0000   1.0000   1.0000   1.0000   1.0000   1.0000   1.0000   1.0000
     1.0000   1.0000   1.0000   1.0000   1.0000   1.0000   1.0000   1.0000
     1.0000   1.0000   1.0000   1.0000   1.0000   1.0000   1.0000   1.0000
     1.0000   1.0000   1.0000   1.0000   1.0000   1.0000   1.0000   1.0000
     1.0000   1.0000   1.0000   1.0000   1.0000   1.0000   1.0000   1.0000
     1.0000   1.0000   1.0000   1.0000   1.0000   1.0000   1.0000   1.0000
     1.0000   1.0000   1.0000   1.0000   1.0000   1.0000   1.0000   1.0000
     1.0000   1.0000   1.0000   1.0000   1.0000   1.0000   1.0000   1.0000
     1.0000   1.0000   1.0000   1.0000   1.0000   1.0000   1.0000   1.0000
     1.0000   1.0000   1.0000   1.0000   1.0000   1.0000   1.0000   1.0000
     1.0000   1.0000   1.0000   0.0126   0.0126  -0.0027  -0.0027  -0.0023
    -0.0005  -0.0001  -0.0000  -0.0000  -0.0000  -0.0000  -0.0000  -0.0000
    -0.0000  -0.0000  -0.0000  -0.0000  -0.0000  -0.0000  -0.0000  -0.0000
    -0.0000  -0.0000  -0.0000  -0.0000  -0.0000  -0.0000  -0.0000  -0.0000
    -0.0000  -0.0000  -0.0000  -0.0000  -0.0000  -0.0000  -0.0000  -0.0000
    -0.0000  -0.0000  -0.0000  -0.0000  -0.0000  -0.0000  -0.0000  -0.0000
    -0.0000  -0.0000  -0.0000  -0.0000  -0.0000  -0.0000  -0.0000  -0.0000

          k = 0.0000 0.0000-0.1994 (  7198 PWs)   bands (ev):

   -79.7024 -79.5122 -79.4026 -74.7334 -74.6912 -74.6040 -45.6923 -45.6455
   -45.6455 -45.4757 -45.4723 -45.4723 -45.4444 -45.3316 -45.3316 -40.8568
   -40.8104 -40.8098 -40.8097 -40.7685 -40.7685 -40.7327 -40.6842 -40.6842
   -11.6592 -11.6592 -11.6480 -11.6480 -11.5947 -11.5908 -11.5908 -11.5862
   -11.5862 -11.5834 -11.5665 -11.5665 -11.5594 -11.5594 -11.5340 -11.5253
   -11.5154 -11.5154 -11.5127 -11.5127 -11.5051 -11.5051 -11.4996 -11.4979
   -11.4979 -11.4897 -11.4739 -11.4739 -11.4649 -11.4649  -8.0778  -7.8920
    -7.3215  -7.3041  -6.6434  -6.5007  -6.5006  -6.4224  -6.3748  -6.3748
    -6.2732  -6.2731  -6.1931  -6.1930  -6.0157  -6.0156  -5.8616  -5.8616
     0.5362   0.5863   1.1115   1.1339   2.0907   2.1636   4.7511   4.7511
     4.8379   5.0641   5.0641   5.0963   5.3629   5.3629   5.5214   5.5214
     5.6720   5.7102   5.7930   5.7930   5.9987   6.0639   6.0639   6.1250
     6.1723   6.1723   6.2593   6.2844   6.2845   6.4882   6.7275   6.7275
     7.2368   7.3429   7.3430   7.4288   7.4485   7.4486   7.6972   7.6973
     7.7807   7.9582   8.0430   8.0430   8.0652   8.1988   8.1988   8.4286
     8.4286   8.5497   8.5497   8.6279   8.6915   8.6915   8.7751   8.8062
     8.8063   8.9028   8.9029   9.2327   9.2327   9.4101   9.4102   9.7948
     9.8820   9.8821   9.9326   9.9871  10.1392  10.2627  10.4028  10.5239
    10.5239  11.1593  11.1593  11.7362  11.7362  11.9328  11.9403  11.9403
    11.9963  12.0485  12.0742  12.0742  12.8453  12.8453  13.4881  13.4881
    14.0210  14.0210  14.2125  14.2685  15.6461  15.6802  15.7570  15.8199
    15.8553  15.8554  15.9219  15.9219  16.2680  16.2680  16.2864  16.2864
    16.8695  16.8695  16.9954  16.9955  17.9380  18.5279  19.5125  19.7868
    20.1518  20.3493  20.3493  20.3737  20.5666  20.5667  21.8582  21.8583
    21.9890  21.9905  22.1810  22.1836  22.2222  22.2842  22.4331  22.6345

     occupation numbers 
     1.0000   1.0000   1.0000   1.0000   1.0000   1.0000   1.0000   1.0000
     1.0000   1.0000   1.0000   1.0000   1.0000   1.0000   1.0000   1.0000
     1.0000   1.0000   1.0000   1.0000   1.0000   1.0000   1.0000   1.0000
     1.0000   1.0000   1.0000   1.0000   1.0000   1.0000   1.0000   1.0000
     1.0000   1.0000   1.0000   1.0000   1.0000   1.0000   1.0000   1.0000
     1.0000   1.0000   1.0000   1.0000   1.0000   1.0000   1.0000   1.0000
     1.0000   1.0000   1.0000   1.0000   1.0000   1.0000   1.0000   1.0000
     1.0000   1.0000   1.0000   1.0000   1.0000   1.0000   1.0000   1.0000
     1.0000   1.0000   1.0000   1.0000   1.0000   1.0000   1.0000   1.0000
     1.0000   1.0000   1.0000   1.0000   1.0000   1.0000   1.0000   1.0000
     1.0000   1.0000   1.0000   1.0000   1.0000   1.0000   1.0000   1.0000
     1.0000   1.0000   1.0000   1.0000   1.0000   1.0000   1.0000   1.0000
     1.0000   1.0000   1.0000   1.0000   1.0000   1.0000   1.0000   1.0000
     1.0000   1.0000   1.0000   1.0000   1.0000   1.0000   1.0000   1.0000
     1.0000   1.0000   1.0000   1.0000   1.0000   1.0000   1.0000   1.0000
     1.0000   1.0000   1.0000   1.0000   1.0000   1.0000   1.0000   1.0000
     1.0000   1.0000   1.0000   1.0000   1.0000   1.0000   1.0000   1.0000
     1.0000   1.0000   1.0000   1.0000   1.0000   1.0000   1.0000   1.0000
     1.0000   1.0000   1.0000  -0.0027  -0.0027  -0.0027  -0.0022  -0.0022
    -0.0003  -0.0000  -0.0000  -0.0000  -0.0000  -0.0000  -0.0000  -0.0000
    -0.0000  -0.0000  -0.0000  -0.0000  -0.0000  -0.0000  -0.0000  -0.0000
    -0.0000  -0.0000  -0.0000  -0.0000  -0.0000  -0.0000  -0.0000  -0.0000
    -0.0000  -0.0000  -0.0000  -0.0000  -0.0000  -0.0000  -0.0000  -0.0000
    -0.0000  -0.0000  -0.0000  -0.0000  -0.0000  -0.0000  -0.0000  -0.0000
    -0.0000  -0.0000  -0.0000  -0.0000  -0.0000  -0.0000  -0.0000  -0.0000

          k = 0.0000 0.3849 0.0000 (  7204 PWs)   bands (ev):

   -79.7025 -79.5123 -79.4027 -74.7335 -74.6913 -74.6041 -45.6923 -45.6468
   -45.6459 -45.4758 -45.4736 -45.4727 -45.4445 -45.3330 -45.3320 -40.8568
   -40.8110 -40.8103 -40.8100 -40.7697 -40.7689 -40.7327 -40.6854 -40.6846
   -11.6580 -11.6443 -11.6347 -11.6236 -11.6004 -11.5988 -11.5920 -11.5847
   -11.5767 -11.5736 -11.5627 -11.5596 -11.5542 -11.5501 -11.5403 -11.5305
   -11.5216 -11.5196 -11.5152 -11.5135 -11.5101 -11.5073 -11.5048 -11.5001
   -11.4978 -11.4892 -11.4859 -11.4772 -11.4754 -11.4667  -7.7884  -7.4845
    -7.3729  -7.0661  -6.8547  -6.7040  -6.6377  -6.5757  -6.4603  -6.4392
    -6.3456  -6.3304  -6.2258  -6.2083  -6.0905  -6.0706  -5.9251  -5.8729
     0.6395   0.7251   0.9312   1.2110   1.4612   1.6638   4.8272   5.0362
     5.0670   5.1594   5.2252   5.3947   5.4251   5.5201   5.6431   5.6891
     5.7622   5.8300   5.8664   5.9520   6.0715   6.1508   6.2689   6.2906
     6.4152   6.5412   6.6803   6.7376   6.8551   6.9355   6.9670   7.0538
     7.0907   7.1784   7.2746   7.3683   7.4236   7.4886   7.6004   7.6933
     7.7770   7.8294   7.9044   7.9689   8.0440   8.1189   8.1742   8.2248
     8.2530   8.3744   8.4425   8.5449   8.6206   8.6596   8.7013   8.7673
     8.8178   8.8541   8.9111   9.0495   9.0878   9.1556   9.1905   9.5407
     9.7045   9.7973   9.9289  10.0152  10.1578  10.2626  10.4626  10.5876
    10.6071  10.8622  11.1207  11.7029  11.7442  11.8266  11.9159  11.9818
    12.0193  12.0813  12.1749  12.3130  12.8696  12.9932  13.1430  13.4235
    13.5755  13.9361  14.2183  14.6857  14.7043  14.8040  15.0047  15.1765
    15.2462  15.2979  15.6550  16.1213  16.1665  16.2534  16.3018  16.4329
    16.5559  16.6090  16.6887  16.7929  18.7252  19.6187  19.6922  19.9941
    20.4977  20.6362  21.1033  21.1194  21.3012  21.5055  21.6354  21.6999
    21.8035  22.0048  22.2146  22.5215  22.5943  22.7146  22.7952  22.8509

     occupation numbers 
     1.0000   1.0000   1.0000   1.0000   1.0000   1.0000   1.0000   1.0000
     1.0000   1.0000   1.0000   1.0000   1.0000   1.0000   1.0000   1.0000
     1.0000   1.0000   1.0000   1.0000   1.0000   1.0000   1.0000   1.0000
     1.0000   1.0000   1.0000   1.0000   1.0000   1.0000   1.0000   1.0000
     1.0000   1.0000   1.0000   1.0000   1.0000   1.0000   1.0000   1.0000
     1.0000   1.0000   1.0000   1.0000   1.0000   1.0000   1.0000   1.0000
     1.0000   1.0000   1.0000   1.0000   1.0000   1.0000   1.0000   1.0000
     1.0000   1.0000   1.0000   1.0000   1.0000   1.0000   1.0000   1.0000
     1.0000   1.0000   1.0000   1.0000   1.0000   1.0000   1.0000   1.0000
     1.0000   1.0000   1.0000   1.0000   1.0000   1.0000   1.0000   1.0000
     1.0000   1.0000   1.0000   1.0000   1.0000   1.0000   1.0000   1.0000
     1.0000   1.0000   1.0000   1.0000   1.0000   1.0000   1.0000   1.0000
     1.0000   1.0000   1.0000   1.0000   1.0000   1.0000   1.0000   1.0000
     1.0000   1.0000   1.0000   1.0000   1.0000   1.0000   1.0000   1.0000
     1.0000   1.0000   1.0000   1.0000   1.0000   1.0000   1.0000   1.0000
     1.0000   1.0000   1.0000   1.0000   1.0000   1.0000   1.0000   1.0000
     1.0000   1.0000   1.0000   1.0000   1.0000   1.0000   1.0000   1.0000
     1.0000   1.0000   1.0000   1.0000   1.0000   1.0000   1.0000   1.0000
     1.0000   1.0000   1.0000   0.0755  -0.0136  -0.0268  -0.0044  -0.0006
    -0.0001  -0.0000  -0.0000  -0.0000  -0.0000  -0.0000  -0.0000  -0.0000
    -0.0000  -0.0000  -0.0000  -0.0000  -0.0000  -0.0000  -0.0000  -0.0000
    -0.0000  -0.0000  -0.0000  -0.0000  -0.0000  -0.0000  -0.0000  -0.0000
    -0.0000  -0.0000  -0.0000  -0.0000  -0.0000  -0.0000  -0.0000  -0.0000
    -0.0000  -0.0000  -0.0000  -0.0000  -0.0000  -0.0000  -0.0000  -0.0000
    -0.0000  -0.0000  -0.0000  -0.0000  -0.0000  -0.0000  -0.0000  -0.0000

          k = 0.0000 0.3849-0.1994 (  7218 PWs)   bands (ev):

   -79.7026 -79.5124 -79.4027 -74.7335 -74.6913 -74.6041 -45.6928 -45.6468
   -45.6463 -45.4762 -45.4736 -45.4732 -45.4449 -45.3329 -45.3325 -40.8572
   -40.8110 -40.8107 -40.8105 -40.7697 -40.7693 -40.7331 -40.6854 -40.6850
   -11.6608 -11.6371 -11.6358 -11.6216 -11.6105 -11.5974 -11.5932 -11.5852
   -11.5740 -11.5718 -11.5622 -11.5580 -11.5540 -11.5506 -11.5407 -11.5307
   -11.5213 -11.5197 -11.5155 -11.5132 -11.5108 -11.5070 -11.5044 -11.5007
   -11.4978 -11.4893 -11.4859 -11.4781 -11.4756 -11.4657  -7.7668  -7.5855
    -7.2159  -7.0998  -6.9440  -6.6792  -6.6291  -6.5859  -6.4677  -6.3865
    -6.3461  -6.3267  -6.2329  -6.2266  -6.0941  -6.0677  -5.9251  -5.8730
     0.6212   0.7568   0.9277   1.1822   1.4867   1.6572   4.8117   5.0332
     5.0677   5.2258   5.2594   5.3671   5.4176   5.5514   5.5842   5.6533
     5.7680   5.8020   5.8665   5.9556   6.0391   6.1254   6.2957   6.3307
     6.4295   6.5434   6.6307   6.7254   6.8452   6.9023   6.9565   7.1149
     7.1214   7.2104   7.3156   7.3887   7.4578   7.5307   7.5793   7.6622
     7.7140   7.8355   7.8879   7.9649   8.0555   8.1005   8.1477   8.2170
     8.2738   8.3881   8.4242   8.5355   8.5719   8.6512   8.7278   8.7882
     8.8289   8.9026   8.9664   8.9927   9.0429   9.1356   9.1974   9.5633
     9.6854   9.7711   9.8988  10.0799  10.1369  10.2768  10.4826  10.5841
    10.6379  10.8291  11.1158  11.7020  11.7475  11.8222  11.9159  11.9795
    12.0267  12.0831  12.1728  12.3098  12.8690  12.9882  13.1437  13.4097
    13.5742  13.9310  14.3245  14.5447  14.6965  14.7889  14.9212  15.1665
    15.3667  15.4158  15.7881  15.9768  16.1216  16.1642  16.2536  16.4574
    16.5553  16.6374  16.7211  16.8243  18.7842  19.3569  19.7689  20.1328
    20.5063  20.6853  21.0727  21.1352  21.2534  21.3262  21.7266  21.8850
    21.9611  22.0509  22.1920  22.2775  22.4087  22.7062  22.7995  22.9482

     occupation numbers 
     1.0000   1.0000   1.0000   1.0000   1.0000   1.0000   1.0000   1.0000
     1.0000   1.0000   1.0000   1.0000   1.0000   1.0000   1.0000   1.0000
     1.0000   1.0000   1.0000   1.0000   1.0000   1.0000   1.0000   1.0000
     1.0000   1.0000   1.0000   1.0000   1.0000   1.0000   1.0000   1.0000
     1.0000   1.0000   1.0000   1.0000   1.0000   1.0000   1.0000   1.0000
     1.0000   1.0000   1.0000   1.0000   1.0000   1.0000   1.0000   1.0000
     1.0000   1.0000   1.0000   1.0000   1.0000   1.0000   1.0000   1.0000
     1.0000   1.0000   1.0000   1.0000   1.0000   1.0000   1.0000   1.0000
     1.0000   1.0000   1.0000   1.0000   1.0000   1.0000   1.0000   1.0000
     1.0000   1.0000   1.0000   1.0000   1.0000   1.0000   1.0000   1.0000
     1.0000   1.0000   1.0000   1.0000   1.0000   1.0000   1.0000   1.0000
     1.0000   1.0000   1.0000   1.0000   1.0000   1.0000   1.0000   1.0000
     1.0000   1.0000   1.0000   1.0000   1.0000   1.0000   1.0000   1.0000
     1.0000   1.0000   1.0000   1.0000   1.0000   1.0000   1.0000   1.0000
     1.0000   1.0000   1.0000   1.0000   1.0000   1.0000   1.0000   1.0000
     1.0000   1.0000   1.0000   1.0000   1.0000   1.0000   1.0000   1.0000
     1.0000   1.0000   1.0000   1.0000   1.0000   1.0000   1.0000   1.0000
     1.0000   1.0000   1.0000   1.0000   1.0000   1.0000   1.0000   1.0000
     1.0000   1.0000   1.0000   0.0784  -0.0174  -0.0282  -0.0044  -0.0006
    -0.0001  -0.0000  -0.0000  -0.0000  -0.0000  -0.0000  -0.0000  -0.0000
    -0.0000  -0.0000  -0.0000  -0.0000  -0.0000  -0.0000  -0.0000  -0.0000
    -0.0000  -0.0000  -0.0000  -0.0000  -0.0000  -0.0000  -0.0000  -0.0000
    -0.0000  -0.0000  -0.0000  -0.0000  -0.0000  -0.0000  -0.0000  -0.0000
    -0.0000  -0.0000  -0.0000  -0.0000  -0.0000  -0.0000  -0.0000  -0.0000
    -0.0000  -0.0000  -0.0000  -0.0000  -0.0000  -0.0000  -0.0000  -0.0000

          k = 0.3333 0.5774 0.0000 (  7185 PWs)   bands (ev):

   -79.7025 -79.5123 -79.4026 -74.7334 -74.6913 -74.6041 -45.6928 -45.6457
   -45.6456 -45.4762 -45.4725 -45.4725 -45.4449 -45.3318 -45.3318 -40.8571
   -40.8108 -40.8099 -40.8098 -40.7687 -40.7687 -40.7331 -40.6844 -40.6844
   -11.6376 -11.6355 -11.6277 -11.6228 -11.6227 -11.6047 -11.5907 -11.5747
   -11.5687 -11.5674 -11.5640 -11.5567 -11.5534 -11.5471 -11.5359 -11.5332
   -11.5259 -11.5198 -11.5156 -11.5129 -11.5116 -11.5061 -11.5051 -11.5045
   -11.4995 -11.4887 -11.4882 -11.4853 -11.4781 -11.4751  -7.3252  -7.3192
    -7.2703  -7.1573  -7.0105  -6.9744  -6.6340  -6.6331  -6.6329  -6.4174
    -6.3377  -6.3184  -6.3003  -6.2264  -6.2248  -5.9893  -5.9537  -5.9118
     0.9509   0.9886   1.0155   1.0583   1.0810   1.1301   4.9535   4.9786
     5.0934   5.2460   5.4106   5.4302   5.5425   5.6031   5.6888   5.8577
     5.8744   5.9613   6.0685   6.0818   6.1462   6.3713   6.3882   6.5117
     6.5143   6.5513   6.6621   6.7842   6.8588   6.8946   7.0098   7.0233
     7.0781   7.1955   7.2254   7.3901   7.5152   7.5389   7.5610   7.6273
     7.7087   7.7240   7.9157   7.9512   8.0290   8.0822   8.1208   8.1661
     8.2306   8.3396   8.4038   8.4360   8.4961   8.5426   8.8073   8.8563
     8.8706   8.9592   9.0029   9.0192   9.1265   9.1706   9.1774   9.6640
     9.6767   9.8613   9.9654   9.9718   9.9794  10.2071  10.4082  10.4247
    10.5893  10.8496  10.8583  11.7518  11.7791  11.7817  11.9539  11.9836
    12.1115  12.1954  12.2221  12.2500  12.8892  12.9353  13.1295  13.5286
    13.5674  13.5823  14.3235  14.3269  14.3518  14.6526  14.6691  14.6985
    15.4207  15.4958  15.5118  15.7503  15.8371  15.8374  16.3252  16.3300
    16.4048  16.4471  16.5956  16.6647  19.7070  19.7766  19.9597  20.7034
    20.7452  20.7516  21.2562  21.2590  21.2735  21.6789  21.6990  21.8098
    22.0879  22.1399  22.1763  22.4060  22.4310  22.5071  22.6402  22.7162

     occupation numbers 
     1.0000   1.0000   1.0000   1.0000   1.0000   1.0000   1.0000   1.0000
     1.0000   1.0000   1.0000   1.0000   1.0000   1.0000   1.0000   1.0000
     1.0000   1.0000   1.0000   1.0000   1.0000   1.0000   1.0000   1.0000
     1.0000   1.0000   1.0000   1.0000   1.0000   1.0000   1.0000   1.0000
     1.0000   1.0000   1.0000   1.0000   1.0000   1.0000   1.0000   1.0000
     1.0000   1.0000   1.0000   1.0000   1.0000   1.0000   1.0000   1.0000
     1.0000   1.0000   1.0000   1.0000   1.0000   1.0000   1.0000   1.0000
     1.0000   1.0000   1.0000   1.0000   1.0000   1.0000   1.0000   1.0000
     1.0000   1.0000   1.0000   1.0000   1.0000   1.0000   1.0000   1.0000
     1.0000   1.0000   1.0000   1.0000   1.0000   1.0000   1.0000   1.0000
     1.0000   1.0000   1.0000   1.0000   1.0000   1.0000   1.0000   1.0000
     1.0000   1.0000   1.0000   1.0000   1.0000   1.0000   1.0000   1.0000
     1.0000   1.0000   1.0000   1.0000   1.0000   1.0000   1.0000   1.0000
     1.0000   1.0000   1.0000   1.0000   1.0000   1.0000   1.0000   1.0000
     1.0000   1.0000   1.0000   1.0000   1.0000   1.0000   1.0000   1.0000
     1.0000   1.0000   1.0000   1.0000   1.0000   1.0000   1.0000   1.0000
     1.0000   1.0000   1.0000   1.0000   1.0000   1.0000   1.0000   1.0000
     1.0000   1.0000   1.0000   1.0000   1.0000   1.0000   1.0000   1.0000
     1.0000   1.0000   1.0000  -0.0216  -0.0350  -0.0353  -0.0014  -0.0005
    -0.0000  -0.0000  -0.0000  -0.0000  -0.0000  -0.0000  -0.0000  -0.0000
    -0.0000  -0.0000  -0.0000  -0.0000  -0.0000  -0.0000  -0.0000  -0.0000
    -0.0000  -0.0000  -0.0000  -0.0000  -0.0000  -0.0000  -0.0000  -0.0000
    -0.0000  -0.0000  -0.0000  -0.0000  -0.0000  -0.0000  -0.0000  -0.0000
    -0.0000  -0.0000  -0.0000  -0.0000  -0.0000  -0.0000  -0.0000  -0.0000
    -0.0000  -0.0000  -0.0000  -0.0000  -0.0000  -0.0000  -0.0000  -0.0000

          k = 0.3333 0.5774-0.1994 (  7170 PWs)   bands (ev):

   -79.7024 -79.5122 -79.4026 -74.7334 -74.6913 -74.6041 -45.6920 -45.6459
   -45.6458 -45.4754 -45.4727 -45.4726 -45.4442 -45.3320 -45.3320 -40.8565
   -40.8102 -40.8100 -40.8100 -40.7689 -40.7688 -40.7324 -40.6845 -40.6845
   -11.6374 -11.6350 -11.6284 -11.6230 -11.6216 -11.6093 -11.5814 -11.5748
   -11.5713 -11.5682 -11.5678 -11.5575 -11.5525 -11.5472 -11.5360 -11.5295
   -11.5268 -11.5228 -11.5136 -11.5116 -11.5104 -11.5078 -11.5056 -11.5055
   -11.4985 -11.4885 -11.4885 -11.4852 -11.4782 -11.4752  -7.3232  -7.3172
    -7.2618  -7.1710  -7.0201  -6.9865  -6.6070  -6.5920  -6.5682  -6.4965
    -6.4296  -6.3782  -6.2358  -6.1952  -6.1836  -5.9952  -5.9589  -5.9168
     0.9562   0.9927   1.0260   1.0526   1.0700   1.1255   4.9548   4.9779
     5.0923   5.2468   5.4276   5.4306   5.5850   5.6533   5.6817   5.8314
     5.8432   6.0029   6.0260   6.0980   6.1185   6.2971   6.4123   6.4627
     6.5299   6.5448   6.5496   6.7906   6.7920   6.8039   7.0694   7.2198
     7.2566   7.2869   7.3148   7.3533   7.4067   7.4752   7.5456   7.6592
     7.7570   7.7627   7.8598   7.8921   7.9113   8.0873   8.0942   8.1589
     8.2665   8.3194   8.3887   8.4873   8.5864   8.6195   8.7238   8.7898
     8.8313   8.9707   8.9988   9.0555   9.1331   9.1762   9.1848   9.6413
     9.6494   9.8807   9.9602   9.9750   9.9849  10.2124  10.4033  10.4188
    10.5921  10.8591  10.8794  11.7404  11.7809  11.7883  11.9512  11.9815
    12.1084  12.1878  12.2254  12.2558  12.8942  12.9361  13.1490  13.5209
    13.5884  13.5949  14.3741  14.3795  14.3935  14.5069  14.5223  14.5570
    15.6852  15.6896  15.6914  15.7027  15.7529  15.7965  16.3138  16.3559
    16.3572  16.4465  16.4810  16.5475  19.7119  19.7857  19.9658  20.6969
    20.7486  20.7656  21.4028  21.4109  21.4231  21.5753  21.5783  21.6303
    22.1069  22.1612  22.2046  22.2911  22.3204  22.3738  22.9500  22.9519

     occupation numbers 
     1.0000   1.0000   1.0000   1.0000   1.0000   1.0000   1.0000   1.0000
     1.0000   1.0000   1.0000   1.0000   1.0000   1.0000   1.0000   1.0000
     1.0000   1.0000   1.0000   1.0000   1.0000   1.0000   1.0000   1.0000
     1.0000   1.0000   1.0000   1.0000   1.0000   1.0000   1.0000   1.0000
     1.0000   1.0000   1.0000   1.0000   1.0000   1.0000   1.0000   1.0000
     1.0000   1.0000   1.0000   1.0000   1.0000   1.0000   1.0000   1.0000
     1.0000   1.0000   1.0000   1.0000   1.0000   1.0000   1.0000   1.0000
     1.0000   1.0000   1.0000   1.0000   1.0000   1.0000   1.0000   1.0000
     1.0000   1.0000   1.0000   1.0000   1.0000   1.0000   1.0000   1.0000
     1.0000   1.0000   1.0000   1.0000   1.0000   1.0000   1.0000   1.0000
     1.0000   1.0000   1.0000   1.0000   1.0000   1.0000   1.0000   1.0000
     1.0000   1.0000   1.0000   1.0000   1.0000   1.0000   1.0000   1.0000
     1.0000   1.0000   1.0000   1.0000   1.0000   1.0000   1.0000   1.0000
     1.0000   1.0000   1.0000   1.0000   1.0000   1.0000   1.0000   1.0000
     1.0000   1.0000   1.0000   1.0000   1.0000   1.0000   1.0000   1.0000
     1.0000   1.0000   1.0000   1.0000   1.0000   1.0000   1.0000   1.0000
     1.0000   1.0000   1.0000   1.0000   1.0000   1.0000   1.0000   1.0000
     1.0000   1.0000   1.0000   1.0000   1.0000   1.0000   1.0000   1.0000
     1.0000   1.0000   1.0000  -0.0088  -0.0352  -0.0354  -0.0015  -0.0006
    -0.0000  -0.0000  -0.0000  -0.0000  -0.0000  -0.0000  -0.0000  -0.0000
    -0.0000  -0.0000  -0.0000  -0.0000  -0.0000  -0.0000  -0.0000  -0.0000
    -0.0000  -0.0000  -0.0000  -0.0000  -0.0000  -0.0000  -0.0000  -0.0000
    -0.0000  -0.0000  -0.0000  -0.0000  -0.0000  -0.0000  -0.0000  -0.0000
    -0.0000  -0.0000  -0.0000  -0.0000  -0.0000  -0.0000  -0.0000  -0.0000
    -0.0000  -0.0000  -0.0000  -0.0000  -0.0000  -0.0000  -0.0000  -0.0000

 ------ SPIN DOWN ----------


          k = 0.0000 0.0000 0.0000 (  7259 PWs)   bands (ev):

   -79.7021 -79.5088 -79.4052 -74.7339 -74.6947 -74.6020 -45.6925 -45.6468
   -45.6468 -45.4730 -45.4705 -45.4705 -45.4475 -45.3357 -45.3357 -40.8576
   -40.8142 -40.8116 -40.8116 -40.7733 -40.7733 -40.7311 -40.6836 -40.6836
   -11.6644 -11.6644 -11.6348 -11.6348 -11.6121 -11.6121 -11.5952 -11.5827
   -11.5709 -11.5709 -11.5666 -11.5666 -11.5598 -11.5598 -11.5351 -11.5237
   -11.5171 -11.5171 -11.5111 -11.5111 -11.5065 -11.5065 -11.4999 -11.4975
   -11.4975 -11.4900 -11.4756 -11.4756 -11.4638 -11.4638  -8.1090  -7.7399
    -7.6448  -6.9300  -6.8694  -6.5010  -6.5009  -6.3735  -6.3735  -6.3681
    -6.2778  -6.2778  -6.1875  -6.1873  -6.0182  -6.0182  -5.8612  -5.8612
     0.4941   0.7290   0.8073   1.5486   1.6774   2.3724   4.7165   4.7166
     4.8002   5.1977   5.1977   5.2658   5.3064   5.3064   5.4528   5.4906
     5.4906   5.6788   5.7569   5.7569   5.9504   5.9505   5.9784   6.1308
     6.1572   6.1572   6.2375   6.4607   6.4608   6.7111   6.7111   6.8598
     7.0206   7.3242   7.3242   7.3853   7.5462   7.5463   7.6478   7.6478
     7.8204   7.9481   8.0190   8.0191   8.1759   8.1759   8.1945   8.3152
     8.3258   8.3258   8.4887   8.4887   8.6453   8.6453   8.9843   8.9844
     8.9915   9.0390   9.0391   9.1049   9.1049   9.4528   9.4529   9.7478
     9.8336   9.8336   9.8926  10.0700  10.1414  10.2706  10.3306  10.5271
    10.5271  11.1572  11.1573  11.7266  11.7266  11.9320  11.9320  11.9377
    11.9858  12.0414  12.0788  12.0788  12.8478  12.8478  13.4779  13.4779
    14.0181  14.0181  14.5758  14.6927  14.7930  14.8425  15.8550  15.8550
    15.9959  15.9960  16.0400  16.0400  16.2937  16.3518  16.5822  16.5822
    16.6558  16.6559  17.0627  17.0627  17.6757  19.0644  19.2090  19.3625
    20.1786  20.1786  20.4063  20.4909  21.1584  21.1584  21.2643  21.2643
    21.6177  21.6178  22.2617  22.3675  22.4879  22.4890  22.6342  23.3471

     occupation numbers 
     1.0000   1.0000   1.0000   1.0000   1.0000   1.0000   1.0000   1.0000
     1.0000   1.0000   1.0000   1.0000   1.0000   1.0000   1.0000   1.0000
     1.0000   1.0000   1.0000   1.0000   1.0000   1.0000   1.0000   1.0000
     1.0000   1.0000   1.0000   1.0000   1.0000   1.0000   1.0000   1.0000
     1.0000   1.0000   1.0000   1.0000   1.0000   1.0000   1.0000   1.0000
     1.0000   1.0000   1.0000   1.0000   1.0000   1.0000   1.0000   1.0000
     1.0000   1.0000   1.0000   1.0000   1.0000   1.0000   1.0000   1.0000
     1.0000   1.0000   1.0000   1.0000   1.0000   1.0000   1.0000   1.0000
     1.0000   1.0000   1.0000   1.0000   1.0000   1.0000   1.0000   1.0000
     1.0000   1.0000   1.0000   1.0000   1.0000   1.0000   1.0000   1.0000
     1.0000   1.0000   1.0000   1.0000   1.0000   1.0000   1.0000   1.0000
     1.0000   1.0000   1.0000   1.0000   1.0000   1.0000   1.0000   1.0000
     1.0000   1.0000   1.0000   1.0000   1.0000   1.0000   1.0000   1.0000
     1.0000   1.0000   1.0000   1.0000   1.0000   1.0000   1.0000   1.0000
     1.0000   1.0000   1.0000   1.0000   1.0000   1.0000   1.0000   1.0000
     1.0000   1.0000   1.0000   1.0000   1.0000   1.0000   1.0000   1.0000
     1.0000   1.0000   1.0000   1.0000   1.0000   1.0000   1.0000   1.0000
     1.0000   1.0000   1.0000   1.0000   1.0000   1.0000   1.0000   1.0000
     1.0000   1.0000   1.0000   0.0129   0.0129  -0.0027  -0.0027  -0.0023
    -0.0005  -0.0001  -0.0000  -0.0000  -0.0000  -0.0000  -0.0000  -0.0000
    -0.0000  -0.0000  -0.0000  -0.0000  -0.0000  -0.0000  -0.0000  -0.0000
    -0.0000  -0.0000  -0.0000  -0.0000  -0.0000  -0.0000  -0.0000  -0.0000
    -0.0000  -0.0000  -0.0000  -0.0000  -0.0000  -0.0000  -0.0000  -0.0000
    -0.0000  -0.0000  -0.0000  -0.0000  -0.0000  -0.0000  -0.0000  -0.0000
    -0.0000  -0.0000  -0.0000  -0.0000  -0.0000  -0.0000  -0.0000  -0.0000

          k = 0.0000 0.0000-0.1994 (  7198 PWs)   bands (ev):

   -79.7019 -79.5086 -79.4050 -74.7337 -74.6946 -74.6018 -45.6918 -45.6451
   -45.6451 -45.4723 -45.4688 -45.4687 -45.4469 -45.3340 -45.3339 -40.8570
   -40.8136 -40.8101 -40.8101 -40.7717 -40.7717 -40.7305 -40.6821 -40.6821
   -11.6593 -11.6593 -11.6478 -11.6478 -11.5951 -11.5905 -11.5905 -11.5865
   -11.5865 -11.5829 -11.5667 -11.5666 -11.5593 -11.5593 -11.5330 -11.5263
   -11.5152 -11.5152 -11.5128 -11.5128 -11.5048 -11.5048 -11.4987 -11.4984
   -11.4984 -11.4906 -11.4730 -11.4730 -11.4657 -11.4657  -8.0780  -7.8919
    -7.3213  -7.3043  -6.6433  -6.5010  -6.5009  -6.4225  -6.3744  -6.3744
    -6.2735  -6.2734  -6.1926  -6.1924  -6.0157  -6.0157  -5.8619  -5.8619
     0.5365   0.5860   1.1116   1.1337   2.0912   2.1630   4.7510   4.7510
     4.8379   5.0641   5.0642   5.0963   5.3632   5.3632   5.5215   5.5216
     5.6720   5.7107   5.7932   5.7933   5.9986   6.0639   6.0639   6.1248
     6.1723   6.1723   6.2593   6.2844   6.2845   6.4884   6.7275   6.7275
     7.2372   7.3434   7.3435   7.4290   7.4484   7.4484   7.6976   7.6977
     7.7806   7.9579   8.0425   8.0426   8.0662   8.1996   8.1996   8.4284
     8.4285   8.5500   8.5500   8.6276   8.6916   8.6916   8.7756   8.8062
     8.8063   8.9028   8.9028   9.2329   9.2329   9.4098   9.4099   9.7941
     9.8823   9.8823   9.9325   9.9870  10.1392  10.2631  10.4029  10.5242
    10.5242  11.1598  11.1598  11.7355  11.7355  11.9323  11.9391  11.9391
    11.9950  12.0493  12.0750  12.0750  12.8446  12.8446  13.4876  13.4877
    14.0204  14.0205  14.2128  14.2682  15.6466  15.6806  15.7570  15.8190
    15.8559  15.8560  15.9214  15.9214  16.2678  16.2678  16.2865  16.2865
    16.8699  16.8700  16.9948  16.9949  17.9386  18.5276  19.5121  19.7868
    20.1522  20.3499  20.3499  20.3738  20.5663  20.5663  21.8586  21.8586
    21.9893  21.9894  22.1806  22.1808  22.2217  22.2218  22.2836  22.4336

     occupation numbers 
     1.0000   1.0000   1.0000   1.0000   1.0000   1.0000   1.0000   1.0000
     1.0000   1.0000   1.0000   1.0000   1.0000   1.0000   1.0000   1.0000
     1.0000   1.0000   1.0000   1.0000   1.0000   1.0000   1.0000   1.0000
     1.0000   1.0000   1.0000   1.0000   1.0000   1.0000   1.0000   1.0000
     1.0000   1.0000   1.0000   1.0000   1.0000   1.0000   1.0000   1.0000
     1.0000   1.0000   1.0000   1.0000   1.0000   1.0000   1.0000   1.0000
     1.0000   1.0000   1.0000   1.0000   1.0000   1.0000   1.0000   1.0000
     1.0000   1.0000   1.0000   1.0000   1.0000   1.0000   1.0000   1.0000
     1.0000   1.0000   1.0000   1.0000   1.0000   1.0000   1.0000   1.0000
     1.0000   1.0000   1.0000   1.0000   1.0000   1.0000   1.0000   1.0000
     1.0000   1.0000   1.0000   1.0000   1.0000   1.0000   1.0000   1.0000
     1.0000   1.0000   1.0000   1.0000   1.0000   1.0000   1.0000   1.0000
     1.0000   1.0000   1.0000   1.0000   1.0000   1.0000   1.0000   1.0000
     1.0000   1.0000   1.0000   1.0000   1.0000   1.0000   1.0000   1.0000
     1.0000   1.0000   1.0000   1.0000   1.0000   1.0000   1.0000   1.0000
     1.0000   1.0000   1.0000   1.0000   1.0000   1.0000   1.0000   1.0000
     1.0000   1.0000   1.0000   1.0000   1.0000   1.0000   1.0000   1.0000
     1.0000   1.0000   1.0000   1.0000   1.0000   1.0000   1.0000   1.0000
     1.0000   1.0000   1.0000  -0.0026  -0.0026  -0.0027  -0.0022  -0.0022
    -0.0003  -0.0000  -0.0000  -0.0000  -0.0000  -0.0000  -0.0000  -0.0000
    -0.0000  -0.0000  -0.0000  -0.0000  -0.0000  -0.0000  -0.0000  -0.0000
    -0.0000  -0.0000  -0.0000  -0.0000  -0.0000  -0.0000  -0.0000  -0.0000
    -0.0000  -0.0000  -0.0000  -0.0000  -0.0000  -0.0000  -0.0000  -0.0000
    -0.0000  -0.0000  -0.0000  -0.0000  -0.0000  -0.0000  -0.0000  -0.0000
    -0.0000  -0.0000  -0.0000  -0.0000  -0.0000  -0.0000  -0.0000  -0.0000

          k = 0.0000 0.3849 0.0000 (  7204 PWs)   bands (ev):

   -79.7020 -79.5087 -79.4051 -74.7338 -74.6946 -74.6019 -45.6918 -45.6464
   -45.6454 -45.4723 -45.4701 -45.4691 -45.4469 -45.3353 -45.3343 -40.8570
   -40.8136 -40.8113 -40.8104 -40.7730 -40.7721 -40.7305 -40.6833 -40.6824
   -11.6581 -11.6441 -11.6349 -11.6233 -11.6006 -11.5987 -11.5918 -11.5847
   -11.5768 -11.5738 -11.5629 -11.5598 -11.5540 -11.5500 -11.5397 -11.5311
   -11.5211 -11.5193 -11.5154 -11.5132 -11.5101 -11.5073 -11.5051 -11.4999
   -11.4978 -11.4899 -11.4851 -11.4772 -11.4755 -11.4674  -7.7885  -7.4845
    -7.3728  -7.0661  -6.8547  -6.7039  -6.6379  -6.5758  -6.4601  -6.4391
    -6.3457  -6.3306  -6.2254  -6.2080  -6.0905  -6.0705  -5.9254  -5.8732
     0.6396   0.7250   0.9311   1.2110   1.4614   1.6636   4.8272   5.0365
     5.0670   5.1596   5.2252   5.3953   5.4252   5.5201   5.6429   5.6893
     5.7625   5.8301   5.8663   5.9523   6.0715   6.1509   6.2688   6.2907
     6.4151   6.5414   6.6805   6.7377   6.8554   6.9355   6.9672   7.0537
     7.0909   7.1783   7.2749   7.3683   7.4234   7.4888   7.6010   7.6934
     7.7772   7.8293   7.9044   7.9689   8.0441   8.1188   8.1742   8.2252
     8.2532   8.3747   8.4428   8.5449   8.6209   8.6597   8.7015   8.7676
     8.8180   8.8540   8.9111   9.0496   9.0876   9.1550   9.1903   9.5407
     9.7042   9.7975   9.9291  10.0154  10.1582  10.2625  10.4630  10.5877
    10.6077  10.8625  11.1211  11.7023  11.7436  11.8262  11.9147  11.9802
    12.0201  12.0813  12.1747  12.3135  12.8690  12.9925  13.1425  13.4230
    13.5750  13.9356  14.2184  14.6858  14.7041  14.8039  15.0048  15.1765
    15.2460  15.2979  15.6549  16.1213  16.1666  16.2534  16.3020  16.4330
    16.5558  16.6087  16.6892  16.7922  18.7257  19.6196  19.6916  19.9938
    20.4981  20.6359  21.1035  21.1192  21.3012  21.5054  21.6355  21.7001
    21.8033  22.0046  22.2146  22.5215  22.5945  22.7139  22.7957  22.8506

     occupation numbers 
     1.0000   1.0000   1.0000   1.0000   1.0000   1.0000   1.0000   1.0000
     1.0000   1.0000   1.0000   1.0000   1.0000   1.0000   1.0000   1.0000
     1.0000   1.0000   1.0000   1.0000   1.0000   1.0000   1.0000   1.0000
     1.0000   1.0000   1.0000   1.0000   1.0000   1.0000   1.0000   1.0000
     1.0000   1.0000   1.0000   1.0000   1.0000   1.0000   1.0000   1.0000
     1.0000   1.0000   1.0000   1.0000   1.0000   1.0000   1.0000   1.0000
     1.0000   1.0000   1.0000   1.0000   1.0000   1.0000   1.0000   1.0000
     1.0000   1.0000   1.0000   1.0000   1.0000   1.0000   1.0000   1.0000
     1.0000   1.0000   1.0000   1.0000   1.0000   1.0000   1.0000   1.0000
     1.0000   1.0000   1.0000   1.0000   1.0000   1.0000   1.0000   1.0000
     1.0000   1.0000   1.0000   1.0000   1.0000   1.0000   1.0000   1.0000
     1.0000   1.0000   1.0000   1.0000   1.0000   1.0000   1.0000   1.0000
     1.0000   1.0000   1.0000   1.0000   1.0000   1.0000   1.0000   1.0000
     1.0000   1.0000   1.0000   1.0000   1.0000   1.0000   1.0000   1.0000
     1.0000   1.0000   1.0000   1.0000   1.0000   1.0000   1.0000   1.0000
     1.0000   1.0000   1.0000   1.0000   1.0000   1.0000   1.0000   1.0000
     1.0000   1.0000   1.0000   1.0000   1.0000   1.0000   1.0000   1.0000
     1.0000   1.0000   1.0000   1.0000   1.0000   1.0000   1.0000   1.0000
     1.0000   1.0000   1.0000   0.0755  -0.0137  -0.0267  -0.0044  -0.0006
    -0.0001  -0.0000  -0.0000  -0.0000  -0.0000  -0.0000  -0.0000  -0.0000
    -0.0000  -0.0000  -0.0000  -0.0000  -0.0000  -0.0000  -0.0000  -0.0000
    -0.0000  -0.0000  -0.0000  -0.0000  -0.0000  -0.0000  -0.0000  -0.0000
    -0.0000  -0.0000  -0.0000  -0.0000  -0.0000  -0.0000  -0.0000  -0.0000
    -0.0000  -0.0000  -0.0000  -0.0000  -0.0000  -0.0000  -0.0000  -0.0000
    -0.0000  -0.0000  -0.0000  -0.0000  -0.0000  -0.0000  -0.0000  -0.0000

          k = 0.0000 0.3849-0.1994 (  7218 PWs)   bands (ev):

   -79.7021 -79.5088 -79.4051 -74.7339 -74.6947 -74.6019 -45.6923 -45.6464
   -45.6459 -45.4728 -45.4701 -45.4696 -45.4473 -45.3352 -45.3348 -40.8574
   -40.8140 -40.8113 -40.8108 -40.7729 -40.7725 -40.7309 -40.6832 -40.6828
   -11.6608 -11.6369 -11.6360 -11.6212 -11.6106 -11.5974 -11.5932 -11.5851
   -11.5741 -11.5719 -11.5624 -11.5582 -11.5537 -11.5505 -11.5402 -11.5313
   -11.5209 -11.5194 -11.5153 -11.5135 -11.5108 -11.5068 -11.5049 -11.5006
   -11.4976 -11.4900 -11.4851 -11.4777 -11.4763 -11.4662  -7.7670  -7.5854
    -7.2159  -7.0998  -6.9440  -6.6791  -6.6293  -6.5861  -6.4675  -6.3863
    -6.3462  -6.3271  -6.2323  -6.2264  -6.0941  -6.0677  -5.9254  -5.8733
     0.6213   0.7568   0.9277   1.1822   1.4869   1.6569   4.8117   5.0335
     5.0676   5.2261   5.2592   5.3674   5.4178   5.5514   5.5842   5.6534
     5.7679   5.8022   5.8664   5.9560   6.0393   6.1255   6.2960   6.3305
     6.4294   6.5436   6.6306   6.7258   6.8452   6.9027   6.9566   7.1149
     7.1218   7.2105   7.3155   7.3888   7.4576   7.5310   7.5793   7.6625
     7.7138   7.8358   7.8877   7.9650   8.0550   8.1006   8.1481   8.2174
     8.2745   8.3882   8.4241   8.5359   8.5719   8.6511   8.7281   8.7884
     8.8293   8.9027   8.9667   8.9926   9.0428   9.1348   9.1970   9.5632
     9.6853   9.7713   9.8992  10.0800  10.1369  10.2771  10.4830  10.5846
    10.6381  10.8294  11.1163  11.7014  11.7469  11.8217  11.9146  11.9783
    12.0272  12.0831  12.1727  12.3103  12.8684  12.9875  13.1432  13.4093
    13.5737  13.9305  14.3246  14.5447  14.6965  14.7888  14.9213  15.1665
    15.3667  15.4157  15.7881  15.9768  16.1215  16.1643  16.2536  16.4574
    16.5551  16.6376  16.7211  16.8238  18.7847  19.3569  19.7689  20.1328
    20.5065  20.6852  21.0727  21.1353  21.2536  21.3261  21.7264  21.8850
    21.9611  22.0511  22.1915  22.2774  22.4089  22.7062  22.7990  22.9480

     occupation numbers 
     1.0000   1.0000   1.0000   1.0000   1.0000   1.0000   1.0000   1.0000
     1.0000   1.0000   1.0000   1.0000   1.0000   1.0000   1.0000   1.0000
     1.0000   1.0000   1.0000   1.0000   1.0000   1.0000   1.0000   1.0000
     1.0000   1.0000   1.0000   1.0000   1.0000   1.0000   1.0000   1.0000
     1.0000   1.0000   1.0000   1.0000   1.0000   1.0000   1.0000   1.0000
     1.0000   1.0000   1.0000   1.0000   1.0000   1.0000   1.0000   1.0000
     1.0000   1.0000   1.0000   1.0000   1.0000   1.0000   1.0000   1.0000
     1.0000   1.0000   1.0000   1.0000   1.0000   1.0000   1.0000   1.0000
     1.0000   1.0000   1.0000   1.0000   1.0000   1.0000   1.0000   1.0000
     1.0000   1.0000   1.0000   1.0000   1.0000   1.0000   1.0000   1.0000
     1.0000   1.0000   1.0000   1.0000   1.0000   1.0000   1.0000   1.0000
     1.0000   1.0000   1.0000   1.0000   1.0000   1.0000   1.0000   1.0000
     1.0000   1.0000   1.0000   1.0000   1.0000   1.0000   1.0000   1.0000
     1.0000   1.0000   1.0000   1.0000   1.0000   1.0000   1.0000   1.0000
     1.0000   1.0000   1.0000   1.0000   1.0000   1.0000   1.0000   1.0000
     1.0000   1.0000   1.0000   1.0000   1.0000   1.0000   1.0000   1.0000
     1.0000   1.0000   1.0000   1.0000   1.0000   1.0000   1.0000   1.0000
     1.0000   1.0000   1.0000   1.0000   1.0000   1.0000   1.0000   1.0000
     1.0000   1.0000   1.0000   0.0783  -0.0174  -0.0282  -0.0044  -0.0006
    -0.0001  -0.0000  -0.0000  -0.0000  -0.0000  -0.0000  -0.0000  -0.0000
    -0.0000  -0.0000  -0.0000  -0.0000  -0.0000  -0.0000  -0.0000  -0.0000
    -0.0000  -0.0000  -0.0000  -0.0000  -0.0000  -0.0000  -0.0000  -0.0000
    -0.0000  -0.0000  -0.0000  -0.0000  -0.0000  -0.0000  -0.0000  -0.0000
    -0.0000  -0.0000  -0.0000  -0.0000  -0.0000  -0.0000  -0.0000  -0.0000
    -0.0000  -0.0000  -0.0000  -0.0000  -0.0000  -0.0000  -0.0000  -0.0000

          k = 0.3333 0.5774 0.0000 (  7185 PWs)   bands (ev):

   -79.7020 -79.5087 -79.4050 -74.7338 -74.6946 -74.6018 -45.6922 -45.6452
   -45.6452 -45.4728 -45.4689 -45.4689 -45.4473 -45.3341 -45.3341 -40.8574
   -40.8140 -40.8102 -40.8102 -40.7719 -40.7719 -40.7309 -40.6822 -40.6822
   -11.6378 -11.6360 -11.6271 -11.6224 -11.6223 -11.6052 -11.5907 -11.5746
   -11.5688 -11.5674 -11.5640 -11.5566 -11.5540 -11.5467 -11.5356 -11.5328
   -11.5264 -11.5202 -11.5149 -11.5122 -11.5113 -11.5063 -11.5058 -11.5052
   -11.4990 -11.4888 -11.4879 -11.4844 -11.4788 -11.4759  -7.3246  -7.3198
    -7.2707  -7.1570  -7.0111  -6.9739  -6.6341  -6.6332  -6.6329  -6.4173
    -6.3374  -6.3181  -6.3008  -6.2264  -6.2243  -5.9890  -5.9544  -5.9121
     0.9504   0.9890   1.0163   1.0587   1.0802   1.1296   4.9530   4.9797
     5.0926   5.2466   5.4104   5.4313   5.5429   5.6030   5.6880   5.8578
     5.8744   5.9613   6.0694   6.0813   6.1457   6.3715   6.3883   6.5129
     6.5140   6.5512   6.6623   6.7842   6.8593   6.8944   7.0099   7.0235
     7.0785   7.1953   7.2251   7.3903   7.5155   7.5386   7.5617   7.6272
     7.7079   7.7243   7.9156   7.9517   8.0290   8.0825   8.1207   8.1662
     8.2308   8.3401   8.4041   8.4359   8.4962   8.5429   8.8073   8.8566
     8.8708   8.9588   9.0031   9.0193   9.1264   9.1703   9.1768   9.6633
     9.6770   9.8616   9.9659   9.9713   9.9792  10.2087  10.4092  10.4243
    10.5890  10.8491  10.8599  11.7510  11.7792  11.7811  11.9538  11.9819
    12.1096  12.1961  12.2238  12.2496  12.8878  12.9360  13.1279  13.5290
    13.5677  13.5808  14.3237  14.3271  14.3515  14.6526  14.6690  14.6982
    15.4208  15.4957  15.5118  15.7502  15.8373  15.8373  16.3253  16.3297
    16.4051  16.4473  16.5954  16.6643  19.7078  19.7755  19.9621  20.7044
    20.7447  20.7497  21.2561  21.2591  21.2735  21.6786  21.6988  21.8102
    22.0881  22.1399  22.1761  22.4060  22.4311  22.5066  22.6407  22.7153

     occupation numbers 
     1.0000   1.0000   1.0000   1.0000   1.0000   1.0000   1.0000   1.0000
     1.0000   1.0000   1.0000   1.0000   1.0000   1.0000   1.0000   1.0000
     1.0000   1.0000   1.0000   1.0000   1.0000   1.0000   1.0000   1.0000
     1.0000   1.0000   1.0000   1.0000   1.0000   1.0000   1.0000   1.0000
     1.0000   1.0000   1.0000   1.0000   1.0000   1.0000   1.0000   1.0000
     1.0000   1.0000   1.0000   1.0000   1.0000   1.0000   1.0000   1.0000
     1.0000   1.0000   1.0000   1.0000   1.0000   1.0000   1.0000   1.0000
     1.0000   1.0000   1.0000   1.0000   1.0000   1.0000   1.0000   1.0000
     1.0000   1.0000   1.0000   1.0000   1.0000   1.0000   1.0000   1.0000
     1.0000   1.0000   1.0000   1.0000   1.0000   1.0000   1.0000   1.0000
     1.0000   1.0000   1.0000   1.0000   1.0000   1.0000   1.0000   1.0000
     1.0000   1.0000   1.0000   1.0000   1.0000   1.0000   1.0000   1.0000
     1.0000   1.0000   1.0000   1.0000   1.0000   1.0000   1.0000   1.0000
     1.0000   1.0000   1.0000   1.0000   1.0000   1.0000   1.0000   1.0000
     1.0000   1.0000   1.0000   1.0000   1.0000   1.0000   1.0000   1.0000
     1.0000   1.0000   1.0000   1.0000   1.0000   1.0000   1.0000   1.0000
     1.0000   1.0000   1.0000   1.0000   1.0000   1.0000   1.0000   1.0000
     1.0000   1.0000   1.0000   1.0000   1.0000   1.0000   1.0000   1.0000
     1.0000   1.0000   1.0000  -0.0215  -0.0351  -0.0353  -0.0014  -0.0005
    -0.0000  -0.0000  -0.0000  -0.0000  -0.0000  -0.0000  -0.0000  -0.0000
    -0.0000  -0.0000  -0.0000  -0.0000  -0.0000  -0.0000  -0.0000  -0.0000
    -0.0000  -0.0000  -0.0000  -0.0000  -0.0000  -0.0000  -0.0000  -0.0000
    -0.0000  -0.0000  -0.0000  -0.0000  -0.0000  -0.0000  -0.0000  -0.0000
    -0.0000  -0.0000  -0.0000  -0.0000  -0.0000  -0.0000  -0.0000  -0.0000
    -0.0000  -0.0000  -0.0000  -0.0000  -0.0000  -0.0000  -0.0000  -0.0000

          k = 0.3333 0.5774-0.1994 (  7170 PWs)   bands (ev):

   -79.7020 -79.5087 -79.4050 -74.7338 -74.6946 -74.6018 -45.6915 -45.6454
   -45.6454 -45.4720 -45.4691 -45.4691 -45.4466 -45.3343 -45.3343 -40.8567
   -40.8133 -40.8104 -40.8104 -40.7721 -40.7721 -40.7303 -40.6824 -40.6824
   -11.6376 -11.6356 -11.6278 -11.6227 -11.6209 -11.6100 -11.5816 -11.5747
   -11.5711 -11.5685 -11.5679 -11.5574 -11.5531 -11.5467 -11.5357 -11.5288
   -11.5272 -11.5235 -11.5127 -11.5107 -11.5099 -11.5083 -11.5065 -11.5064
   -11.4979 -11.4892 -11.4877 -11.4843 -11.4790 -11.4760  -7.3226  -7.3178
    -7.2622  -7.1706  -7.0207  -6.9860  -6.6071  -6.5925  -6.5679  -6.4966
    -6.4294  -6.3778  -6.2361  -6.1947  -6.1835  -5.9948  -5.9597  -5.9171
     0.9557   0.9932   1.0272   1.0530   1.0688   1.1249   4.9544   4.9790
     5.0915   5.2475   5.4286   5.4303   5.5856   5.6530   5.6809   5.8312
     5.8440   6.0028   6.0263   6.0976   6.1186   6.2968   6.4123   6.4628
     6.5312   6.5453   6.5490   6.7905   6.7921   6.8041   7.0699   7.2195
     7.2560   7.2876   7.3151   7.3537   7.4064   7.4752   7.5453   7.6596
     7.7566   7.7634   7.8595   7.8920   7.9114   8.0874   8.0944   8.1592
     8.2668   8.3192   8.3891   8.4873   8.5867   8.6197   8.7240   8.7902
     8.8314   8.9700   8.9987   9.0558   9.1332   9.1760   9.1841   9.6408
     9.6497   9.8809   9.9602   9.9754   9.9844  10.2139  10.4043  10.4184
    10.5918  10.8586  10.8810  11.7396  11.7803  11.7884  11.9510  11.9796
    12.1066  12.1885  12.2270  12.2554  12.8929  12.9368  13.1472  13.5214
    13.5887  13.5933  14.3742  14.3801  14.3933  14.5070  14.5222  14.5564
    15.6847  15.6898  15.6922  15.7031  15.7524  15.7962  16.3133  16.3561
    16.3575  16.4476  16.4807  16.5464  19.7126  19.7845  19.9682  20.6979
    20.7482  20.7636  21.4027  21.4111  21.4229  21.5753  21.5784  21.6303
    22.1067  22.1605  22.2066  22.2911  22.3214  22.3723  22.9492  22.9534

     occupation numbers 
     1.0000   1.0000   1.0000   1.0000   1.0000   1.0000   1.0000   1.0000
     1.0000   1.0000   1.0000   1.0000   1.0000   1.0000   1.0000   1.0000
     1.0000   1.0000   1.0000   1.0000   1.0000   1.0000   1.0000   1.0000
     1.0000   1.0000   1.0000   1.0000   1.0000   1.0000   1.0000   1.0000
     1.0000   1.0000   1.0000   1.0000   1.0000   1.0000   1.0000   1.0000
     1.0000   1.0000   1.0000   1.0000   1.0000   1.0000   1.0000   1.0000
     1.0000   1.0000   1.0000   1.0000   1.0000   1.0000   1.0000   1.0000
     1.0000   1.0000   1.0000   1.0000   1.0000   1.0000   1.0000   1.0000
     1.0000   1.0000   1.0000   1.0000   1.0000   1.0000   1.0000   1.0000
     1.0000   1.0000   1.0000   1.0000   1.0000   1.0000   1.0000   1.0000
     1.0000   1.0000   1.0000   1.0000   1.0000   1.0000   1.0000   1.0000
     1.0000   1.0000   1.0000   1.0000   1.0000   1.0000   1.0000   1.0000
     1.0000   1.0000   1.0000   1.0000   1.0000   1.0000   1.0000   1.0000
     1.0000   1.0000   1.0000   1.0000   1.0000   1.0000   1.0000   1.0000
     1.0000   1.0000   1.0000   1.0000   1.0000   1.0000   1.0000   1.0000
     1.0000   1.0000   1.0000   1.0000   1.0000   1.0000   1.0000   1.0000
     1.0000   1.0000   1.0000   1.0000   1.0000   1.0000   1.0000   1.0000
     1.0000   1.0000   1.0000   1.0000   1.0000   1.0000   1.0000   1.0000
     1.0000   1.0000   1.0000  -0.0086  -0.0352  -0.0354  -0.0015  -0.0006
    -0.0000  -0.0000  -0.0000  -0.0000  -0.0000  -0.0000  -0.0000  -0.0000
    -0.0000  -0.0000  -0.0000  -0.0000  -0.0000  -0.0000  -0.0000  -0.0000
    -0.0000  -0.0000  -0.0000  -0.0000  -0.0000  -0.0000  -0.0000  -0.0000
    -0.0000  -0.0000  -0.0000  -0.0000  -0.0000  -0.0000  -0.0000  -0.0000
    -0.0000  -0.0000  -0.0000  -0.0000  -0.0000  -0.0000  -0.0000  -0.0000
    -0.0000  -0.0000  -0.0000  -0.0000  -0.0000  -0.0000  -0.0000  -0.0000

     the spin up/dw Fermi energies are    11.6199   11.6193 ev

!    total energy              =   -3194.82663348 Ry
     estimated scf accuracy    <       0.00000431 Ry
     smearing contrib. (-TS)   =       0.00201071 Ry
     internal energy E=F+TS    =   -3194.82864419 Ry

     The total energy is F=E-TS. E is the sum of the following terms:
     one-electron contribution =   -1339.22073867 Ry
     hartree contribution      =     850.93500300 Ry
     xc contribution           =    -694.68503566 Ry
     ewald contribution        =   -2011.85787286 Ry

     total magnetization       =    -0.00 Bohr mag/cell
     absolute magnetization    =    27.72 Bohr mag/cell

     convergence has been achieved in  17 iterations

     negative rho (up, down):  1.186E-01 1.186E-01

     Forces acting on atoms (cartesian axes, Ry/au):

     atom    1 type  3   force =     0.00000000    0.00000000   -0.00457298
     atom    2 type  3   force =     0.00000000    0.00000000    0.00610214
     atom    3 type  3   force =     0.00000000    0.00000000   -0.01402165
     atom    4 type  4   force =     0.00000000   -0.00000000   -0.01444097
     atom    5 type  4   force =     0.00000000    0.00000000   -0.00550294
     atom    6 type  4   force =     0.00000000    0.00000000    0.00579873
     atom    7 type  2   force =     0.00000000   -0.00000000    0.00226381
     atom    8 type  2   force =     0.00000000    0.00000000   -0.00141513
     atom    9 type  2   force =     0.00000000    0.00000000   -0.00321987
     atom   10 type  2   force =     0.00000000    0.00000000    0.00080411
     atom   11 type  2   force =     0.00000000   -0.00000000    0.00074514
     atom   12 type  2   force =     0.00000000   -0.00000000    0.00035633
     atom   13 type  1   force =     0.01454612    0.00195468    0.00065447
     atom   14 type  1   force =    -0.00896587    0.01161997    0.00065447
     atom   15 type  1   force =    -0.00558026   -0.01357465    0.00065447
     atom   16 type  1   force =     0.01072714    0.01238647    0.00134261
     atom   17 type  1   force =    -0.01609057    0.00309674    0.00134261
     atom   18 type  1   force =     0.00536343   -0.01548322    0.00134261
     atom   19 type  1   force =     0.01608860    0.00312151    0.00126391
     atom   20 type  1   force =    -0.01074761    0.01237238    0.00126391
     atom   21 type  1   force =    -0.00534099   -0.01549389    0.00126391
     atom   22 type  1   force =     0.00792816    0.01382277    0.00264027
     atom   23 type  1   force =    -0.01593495   -0.00004540    0.00264027
     atom   24 type  1   force =     0.00800679   -0.01377738    0.00264027
     atom   25 type  1   force =     0.01595506   -0.00008881    0.00264235
     atom   26 type  1   force =    -0.00790062    0.01386189    0.00264235
     atom   27 type  1   force =    -0.00805444   -0.01377309    0.00264235
     atom   28 type  1   force =     0.00896118    0.01158014    0.00049083
     atom   29 type  1   force =    -0.01450929    0.00197054    0.00049083
     atom   30 type  1   force =     0.00554811   -0.01355068    0.00049083
     The non-local contrib.  to forces
     atom    1 type  3   force =     0.00000000    0.00000000    0.10567821
     atom    2 type  3   force =     0.00000000    0.00000000    0.13043659
     atom    3 type  3   force =     0.00000000    0.00000000    0.10103164
     atom    4 type  4   force =     0.00000000    0.00000000    0.10057656
     atom    5 type  4   force =     0.00000000    0.00000000    0.10492719
     atom    6 type  4   force =     0.00000000    0.00000000    0.13016473
     atom    7 type  2   force =     0.00000000    0.00000000   -0.37010475
     atom    8 type  2   force =     0.00000000    0.00000000   -0.33570525
     atom    9 type  2   force =     0.00000000   -0.00000000   -0.33787505
     atom   10 type  2   force =     0.00000000    0.00000000   -0.41310764
     atom   11 type  2   force =     0.00000000    0.00000000   -0.41294913
     atom   12 type  2   force =    -0.00000000   -0.00000000   -0.37207966
     atom   13 type  1   force =    -0.00549038    0.03489790    0.20802799
     atom   14 type  1   force =    -0.02747728   -0.02220376    0.20802799
     atom   15 type  1   force =     0.03296766   -0.01269414    0.20802799
     atom   16 type  1   force =     0.01797929    0.02192998    0.18429500
     atom   17 type  1   force =    -0.02798157    0.00460553    0.18429500
     atom   18 type  1   force =     0.01000228   -0.02653551    0.18429500
     atom   19 type  1   force =     0.02784113    0.00470306    0.18450153
     atom   20 type  1   force =    -0.01799353    0.02175960    0.18450153
     atom   21 type  1   force =    -0.00984760   -0.02646266    0.18450153
     atom   22 type  1   force =     0.02817766    0.00090994    0.16330290
     atom   23 type  1   force =    -0.01487686    0.02394760    0.16330290
     atom   24 type  1   force =    -0.01330080   -0.02485754    0.16330290
     atom   25 type  1   force =     0.01507175    0.02365296    0.16326087
     atom   26 type  1   force =    -0.02801994    0.00122604    0.16326087
     atom   27 type  1   force =     0.01294819   -0.02487900    0.16326087
     atom   28 type  1   force =     0.02758699   -0.02200312    0.20784146
     atom   29 type  1   force =     0.00526176    0.03489260    0.20784146
     atom   30 type  1   force =    -0.03284876   -0.01288948    0.20784146
     The ionic contribution  to forces
     atom    1 type  3   force =    -0.00001637    0.00000945   -5.42930682
     atom    2 type  3   force =     0.00012315   -0.00007110   -5.88614219
     atom    3 type  3   force =    -0.00010800    0.00006235   -3.66986849
     atom    4 type  4   force =    -0.00010801    0.00006236   -3.64761622
     atom    5 type  4   force =    -0.00001635    0.00000944   -5.41736413
     atom    6 type  4   force =     0.00012315   -0.00007110   -5.88411764
     atom    7 type  2   force =    -0.00006548    0.00003780    8.21958645
     atom    8 type  2   force =     0.00007127   -0.00004114    8.78205619
     atom    9 type  2   force =     0.00007126   -0.00004114    8.80705675
     atom   10 type  2   force =    -0.00000666    0.00000385    9.89073779
     atom   11 type  2   force =    -0.00000666    0.00000384    9.87756239
     atom   12 type  2   force =    -0.00006548    0.00003780    8.22723864
     atom   13 type  1   force =    -0.11541952   -2.13467626   -1.62399436
     atom   14 type  1   force =     1.90640129    0.96752460   -1.62390665
     atom   15 type  1   force =    -1.79104382    1.16718748   -1.62392579
     atom   16 type  1   force =    -1.83838926    0.46984977   -1.43747823
     atom   17 type  1   force =     0.51224038   -1.82696506   -1.43748444
     atom   18 type  1   force =     1.32619122    1.35709086   -1.43742485
     atom   19 type  1   force =    -0.50982531   -1.82801135   -1.43129137
     atom   20 type  1   force =     1.83796449    0.47238352   -1.43135096
[...]
     atom    3 type  3   force =     0.00000000   -0.00000000    0.08292760
     atom    4 type  4   force =    -0.00000000   -0.00000000    0.08291442
     atom    5 type  4   force =     0.00000000    0.00000000    0.11709356
     atom    6 type  4   force =     0.00000000   -0.00000000    0.15582330
     atom    7 type  2   force =     0.00000000   -0.00000000   -0.38344113
     atom    8 type  2   force =    -0.00000000   -0.00000000   -0.33657452
     atom    9 type  2   force =     0.00000000   -0.00000000   -0.33680381
     atom   10 type  2   force =    -0.00000000   -0.00000000   -0.40679811
     atom   11 type  2   force =     0.00000000    0.00000000   -0.40661586
     atom   12 type  2   force =     0.00000000    0.00000000   -0.38342694
     atom   13 type  1   force =    -0.03866491    0.00942110    0.21133034
     atom   14 type  1   force =     0.01117354   -0.03819534    0.21133034
     atom   15 type  1   force =     0.02749137    0.02877424    0.21133034
     atom   16 type  1   force =    -0.02841865    0.01808094    0.20074142
     atom   17 type  1   force =    -0.00144923   -0.03365174    0.20074142
     atom   18 type  1   force =     0.02986788    0.01557080    0.20074142
     atom   19 type  1   force =     0.00134001   -0.03358058    0.20077302
     atom   20 type  1   force =     0.02841162    0.01795077    0.20077302
     atom   21 type  1   force =    -0.02975164    0.01562980    0.20077302
     atom   22 type  1   force =     0.01046982    0.00833410    0.12954147
     atom   23 type  1   force =    -0.01245245    0.00490009    0.12954147
     atom   24 type  1   force =     0.00198263   -0.01323418    0.12954147
     atom   25 type  1   force =     0.01251628    0.00494202    0.12942949
     atom   26 type  1   force =    -0.01053805    0.00836841    0.12942949
     atom   27 type  1   force =    -0.00197823   -0.01331042    0.12942949
     atom   28 type  1   force =    -0.01109258   -0.03834909    0.21122038
     atom   29 type  1   force =     0.03875758    0.00956809    0.21122038
     atom   30 type  1   force =    -0.02766500    0.02878100    0.21122038
     The ionic contribution  to forces
     atom    1 type  3   force =    -0.00001602    0.00000925   -4.55964719
     atom    2 type  3   force =     0.00012674   -0.00007317   -5.56027267
     atom    3 type  3   force =    -0.00011427    0.00006597   -2.90863916
     atom    4 type  4   force =    -0.00011427    0.00006597   -2.88883016
     atom    5 type  4   force =    -0.00001600    0.00000924   -4.55483334
     atom    6 type  4   force =     0.00012672   -0.00007316   -5.57696515
     atom    7 type  2   force =    -0.00006802    0.00003927    7.63842009
     atom    8 type  2   force =     0.00007280   -0.00004203    8.21821764
     atom    9 type  2   force =     0.00007280   -0.00004203    8.23525877
     atom   10 type  2   force =    -0.00000569    0.00000329    8.88169807
     atom   11 type  2   force =    -0.00000570    0.00000329    8.86654406
     atom   12 type  2   force =    -0.00006801    0.00003927    7.63929009
     atom   13 type  1   force =    -0.20971998   -1.87923688   -1.66536593
     atom   14 type  1   force =     1.73234039    0.75814275   -1.66526891
     atom   15 type  1   force =    -1.52268081    1.12112900   -1.66528617
     atom   16 type  1   force =    -1.63434840    0.06396964   -1.45093633
     atom   17 type  1   force =     0.76172103   -1.44731302   -1.45094042
     atom   18 type  1   force =     0.87267034    1.38331858   -1.45087156
     atom   19 type  1   force =    -0.76008397   -1.44862027   -1.44730944
     atom   20 type  1   force =     1.63453008    0.06594947   -1.44737828
     atom   21 type  1   force =    -0.87440316    1.38264599   -1.44737419
     atom   22 type  1   force =    -2.01354604    0.37491440   -0.78555736
     atom   23 type  1   force =     0.68213353   -1.93121974   -0.78557262
     atom   24 type  1   force =     1.33143440    1.55629271   -0.78554829
     atom   25 type  1   force =    -0.68289124   -1.93131313   -0.79260854
     atom   26 type  1   force =     2.01405777    0.37421063   -0.79263286
     atom   27 type  1   force =    -1.33114463    1.55708986   -0.79261760
     atom   28 type  1   force =    -1.73278592    0.76095492   -1.66830335
     atom   29 type  1   force =     0.20740019   -1.88119147   -1.66828609
     atom   30 type  1   force =     1.52532534    1.12027141   -1.66838311
     The local contribution  to forces
     atom    1 type  3   force =     0.00000000    0.00000000    4.44278079
     atom    2 type  3   force =     0.00146292   -0.00084462    5.40849774
     atom    3 type  3   force =    -0.00146060    0.00084328    2.82506510
     atom    4 type  4   force =    -0.00146061    0.00084329    2.80553537
     atom    5 type  4   force =    -0.00000000    0.00000000    4.43813844
     atom    6 type  4   force =     0.00146293   -0.00084463    5.42500427
     atom    7 type  2   force =    -0.00035727    0.00020627   -7.27379862
     atom    8 type  2   force =     0.00035706   -0.00020615   -7.89794233
     atom    9 type  2   force =     0.00035707   -0.00020615   -7.91455539
     atom   10 type  2   force =     0.00000000   -0.00000000   -8.49385373
     atom   11 type  2   force =    -0.00000000   -0.00000000   -8.47901764
     atom   12 type  2   force =    -0.00035728    0.00020628   -7.27458867
     atom   13 type  1   force =     0.24888136    1.86981098    1.45545633
     atom   14 type  1   force =    -1.74394638   -0.71909186    1.45539940
     atom   15 type  1   force =     1.49452309   -1.15040624    1.45541177
     atom   16 type  1   force =     1.66302579   -0.08184884    1.25089931
     atom   17 type  1   force =    -0.76043073    1.48079805    1.25091258
     atom   18 type  1   force =    -0.90205516   -1.39926092    1.25085552
     atom   19 type  1   force =     0.75935593    1.48194223    1.24737584
     atom   20 type  1   force =    -1.66287859   -0.08362408    1.24743289
     atom   21 type  1   force =     0.90406258   -1.39862988    1.24741962
     atom   22 type  1   force =     2.00266660   -0.38338097    0.65670840
     atom   23 type  1   force =    -0.66931564    1.92605063    0.65670840
     atom   24 type  1   force =    -1.33335096   -1.54266967    0.65670840
     atom   25 type  1   force =     0.67004035    1.92615792    0.66368829
     atom   26 type  1   force =    -2.00312187   -0.38280699    0.66368829
     atom   27 type  1   force =     1.33308151   -1.54335093    0.66368829
     atom   28 type  1   force =     1.74400863   -0.72175482    1.45846822
     atom   29 type  1   force =    -0.24714820    1.87158291    1.45845583
     atom   30 type  1   force =    -1.49740238   -1.14951519    1.45851277
     The core correction contribution to forces
     atom    1 type  3   force =     0.00000000   -0.00000000   -0.00059667
     atom    2 type  3   force =     0.00000120   -0.00000069   -0.00437903
     atom    3 type  3   force =    -0.00000117    0.00000067    0.00094981
     atom    4 type  4   force =    -0.00000117    0.00000067    0.00094908
     atom    5 type  4   force =     0.00000000   -0.00000000   -0.00059801
     atom    6 type  4   force =     0.00000120   -0.00000069   -0.00438011
     atom    7 type  2   force =    -0.00001395    0.00000805    0.01819000
     atom    8 type  2   force =     0.00001393   -0.00000804    0.01659949
     atom    9 type  2   force =     0.00001393   -0.00000804    0.01659898
     atom   10 type  2   force =    -0.00000000   -0.00000000    0.01814459
     atom   11 type  2   force =     0.00000000    0.00000000    0.01814234
     atom   12 type  2   force =    -0.00001395    0.00000805    0.01818402
     atom   13 type  1   force =     0.00010431   -0.00010738   -0.00105864
     atom   14 type  1   force =     0.00004047    0.00014476   -0.00105864
     atom   15 type  1   force =    -0.00014602   -0.00003666   -0.00105869
     atom   16 type  1   force =     0.00003473   -0.00007010   -0.00092902
     atom   17 type  1   force =     0.00004372    0.00006441   -0.00092907
     atom   18 type  1   force =    -0.00007720    0.00000496   -0.00092907
     atom   19 type  1   force =    -0.00004249    0.00006420   -0.00092926
     atom   20 type  1   force =    -0.00003397   -0.00006963   -0.00092926
     atom   21 type  1   force =     0.00007772    0.00000471   -0.00092921
     atom   22 type  1   force =    -0.00012777   -0.00003555   -0.00055040
     atom   23 type  1   force =     0.00009467   -0.00009288   -0.00055040
     atom   24 type  1   force =     0.00003310    0.00012843   -0.00055040
     atom   25 type  1   force =    -0.00009484   -0.00009328   -0.00054949
     atom   26 type  1   force =     0.00012820   -0.00003550   -0.00054949
     atom   27 type  1   force =    -0.00003336    0.00012878   -0.00054949
     atom   28 type  1   force =    -0.00004185    0.00014528   -0.00105787
     atom   29 type  1   force =    -0.00010527   -0.00010819   -0.00105782
     atom   30 type  1   force =     0.00014587   -0.00003638   -0.00105782
     The Hubbard contrib.    to forces
     atom    1 type  3   force =     0.00000000    0.00000000    0.00000000
     atom    2 type  3   force =     0.00000000    0.00000000    0.00000000
     atom    3 type  3   force =     0.00000000    0.00000000    0.00000000
     atom    4 type  4   force =     0.00000000    0.00000000    0.00000000
     atom    5 type  4   force =     0.00000000    0.00000000    0.00000000
     atom    6 type  4   force =     0.00000000    0.00000000    0.00000000
     atom    7 type  2   force =     0.00000000    0.00000000    0.00000000
     atom    8 type  2   force =     0.00000000    0.00000000    0.00000000
     atom    9 type  2   force =     0.00000000    0.00000000    0.00000000
     atom   10 type  2   force =     0.00000000    0.00000000    0.00000000
     atom   11 type  2   force =     0.00000000    0.00000000    0.00000000
     atom   12 type  2   force =     0.00000000    0.00000000    0.00000000
     atom   13 type  1   force =     0.00000000    0.00000000    0.00000000
     atom   14 type  1   force =     0.00000000    0.00000000    0.00000000
     atom   15 type  1   force =     0.00000000    0.00000000    0.00000000
     atom   16 type  1   force =     0.00000000    0.00000000    0.00000000
     atom   17 type  1   force =     0.00000000    0.00000000    0.00000000
     atom   18 type  1   force =     0.00000000    0.00000000    0.00000000
     atom   19 type  1   force =     0.00000000    0.00000000    0.00000000
     atom   20 type  1   force =     0.00000000    0.00000000    0.00000000
     atom   21 type  1   force =     0.00000000    0.00000000    0.00000000
     atom   22 type  1   force =     0.00000000    0.00000000    0.00000000
     atom   23 type  1   force =     0.00000000    0.00000000    0.00000000
     atom   24 type  1   force =     0.00000000    0.00000000    0.00000000
     atom   25 type  1   force =     0.00000000    0.00000000    0.00000000
     atom   26 type  1   force =     0.00000000    0.00000000    0.00000000
     atom   27 type  1   force =     0.00000000    0.00000000    0.00000000
     atom   28 type  1   force =     0.00000000    0.00000000    0.00000000
     atom   29 type  1   force =     0.00000000    0.00000000    0.00000000
     atom   30 type  1   force =     0.00000000    0.00000000    0.00000000
     The SCF correction term to forces
     atom    1 type  3   force =    -0.00000000    0.00000000    0.00026159
     atom    2 type  3   force =     0.00000008   -0.00000005    0.00007798
     atom    3 type  3   force =    -0.00000009    0.00000005    0.00040016
     atom    4 type  4   force =    -0.00000009    0.00000005    0.00004418
     atom    5 type  4   force =    -0.00000000    0.00000000    0.00005814
     atom    6 type  4   force =     0.00000008   -0.00000004    0.00031664
     atom    7 type  2   force =    -0.00000002    0.00000001   -0.00011742
     atom    8 type  2   force =     0.00000002   -0.00000001    0.00009992
     atom    9 type  2   force =     0.00000002   -0.00000001   -0.00026248
     atom   10 type  2   force =    -0.00000000    0.00000000   -0.00022305
     atom   11 type  2   force =    -0.00000000    0.00000000    0.00015984
     atom   12 type  2   force =    -0.00000002    0.00000001   -0.00013633
     atom   13 type  1   force =    -0.00009670    0.00001547   -0.00001042
     atom   14 type  1   force =     0.00003495   -0.00009147   -0.00001041
     atom   15 type  1   force =     0.00006173    0.00007601   -0.00001041
     atom   16 type  1   force =    -0.00003412   -0.00007948    0.00007019
     atom   17 type  1   force =     0.00008589    0.00001019    0.00007019
     atom   18 type  1   force =    -0.00005176    0.00006928    0.00007019
     atom   19 type  1   force =    -0.00012557    0.00002157   -0.00006383
     atom   20 type  1   force =     0.00004411   -0.00011955   -0.00006383
     atom   21 type  1   force =     0.00008148    0.00009796   -0.00006383
     atom   22 type  1   force =    -0.00003017   -0.00003515   -0.00000576
     atom   23 type  1   force =     0.00004553   -0.00000855   -0.00000576
     atom   24 type  1   force =    -0.00001536    0.00004371   -0.00000576
     atom   25 type  1   force =    -0.00002181   -0.00003366    0.00017152
     atom   26 type  1   force =     0.00004006   -0.00000206    0.00017152
     atom   27 type  1   force =    -0.00001825    0.00003572    0.00017152
     atom   28 type  1   force =    -0.00005310   -0.00009621    0.00003217
     atom   29 type  1   force =     0.00010987    0.00000212    0.00003217
     atom   30 type  1   force =    -0.00005679    0.00009410    0.00003216

     Total force =     0.003335     Total SCF correction =     0.000890
     SCF correction compared to forces is large: reduce conv_thr to get better values


     Computing stress (Cartesian axis) and pressure


     negative rho (up, down):  1.180E-01 1.180E-01
          total   stress  (Ry/bohr**3)                   (kbar)     P=      -52.23
  -0.00031921   0.00000000   0.00000000          -46.96        0.00        0.00
   0.00000000  -0.00031921  -0.00000000            0.00      -46.96       -0.00
   0.00000000  -0.00000000  -0.00042664            0.00       -0.00      -62.76

     kinetic stress (kbar)  23580.72      0.00      0.00
                                0.00  23580.72      0.00
                                0.00      0.00  23565.91

     local   stress (kbar)  -6321.82     -0.00      0.00
                               -0.00  -6321.82     -0.00
                                0.00     -0.00  -2343.80

     nonloc. stress (kbar)  15517.51      0.00      0.00
                                0.00  15517.51     -0.00
                                0.00     -0.00  15482.20

     hartree stress (kbar)  17094.24      0.00      0.00
                                0.00  17094.24     -0.00
                                0.00     -0.00  15592.95

     exc-cor stress (kbar)   9228.96     -0.00      0.00
                               -0.00   9228.96     -0.00
                                0.00     -0.00   9223.65

     corecor stress (kbar) -18602.35      0.00     -0.00
                                0.00 -18602.35      0.00
                               -0.00      0.00 -18602.24

     ewald   stress (kbar) -40544.21      0.00     -0.00
                                0.00 -40544.21      0.00
                               -0.00      0.00 -42981.42

     hubbard stress (kbar)      0.00      0.00      0.00
                                0.00      0.00      0.00
                                0.00      0.00      0.00

     DFT-D   stress (kbar)      0.00      0.00      0.00
                                0.00      0.00      0.00
                                0.00      0.00      0.00

     XDM     stress (kbar)      0.00      0.00      0.00
                                0.00      0.00      0.00
                                0.00      0.00      0.00

     dft-nl  stress (kbar)      0.00      0.00      0.00
                                0.00      0.00      0.00
                                0.00      0.00      0.00

     TS-vdW  stress (kbar)      0.00      0.00      0.00
                                0.00      0.00      0.00
                                0.00      0.00      0.00



     Writing output data file /home/aldair1809/Documentos/QE/4BFO/UHUBBARD/temp/geom_opt_relax/bifeo3-relax.save/

     init_run     :     78.15s CPU     79.98s WALL (       2 calls)
     electrons    :  31191.53s CPU  31795.97s WALL (      13 calls)
     update_pot   :    125.98s CPU    126.37s WALL (      11 calls)
     forces       :    506.10s CPU    515.34s WALL (      13 calls)
     stress       :    738.04s CPU    760.92s WALL (      13 calls)

     Called by init_run:
     wfcinit      :     57.12s CPU     57.58s WALL (       2 calls)
     wfcinit:atom :      0.10s CPU      0.10s WALL (      24 calls)
     wfcinit:wfcr :     56.26s CPU     56.71s WALL (      24 calls)
     potinit      :      5.54s CPU      5.61s WALL (       2 calls)
     hinit0       :     11.39s CPU     11.56s WALL (       2 calls)

     Called by electrons:
     c_bands      :  28336.39s CPU  28701.83s WALL (     178 calls)
     sum_band     :   2386.47s CPU   2521.13s WALL (     178 calls)
     v_of_rho     :     64.71s CPU     66.83s WALL (     189 calls)
     v_h          :      2.53s CPU      2.66s WALL (     189 calls)
     v_xc         :     70.64s CPU     72.86s WALL (     215 calls)
     newd         :    419.58s CPU    528.41s WALL (     189 calls)
     mix_rho      :     10.11s CPU     10.53s WALL (     178 calls)

     Called by c_bands:
     init_us_2    :     35.01s CPU     35.15s WALL (    4608 calls)
     ccgdiagg     :  22563.40s CPU  22878.62s WALL (    2264 calls)
     wfcrot       :   5798.26s CPU   5848.68s WALL (    2108 calls)

     Called by sum_band:
     sum_band:wei :      0.82s CPU      0.82s WALL (     178 calls)
     sum_band:loo :   1568.82s CPU   1595.61s WALL (     178 calls)
     sum_band:buf :      6.12s CPU      6.17s WALL (    2136 calls)
     sum_band:ini :     16.24s CPU     16.28s WALL (    2136 calls)
     sum_band:cal :   1191.23s CPU   1193.97s WALL (    2136 calls)
     sum_band:bec :     10.88s CPU     10.90s WALL (    2136 calls)
     addusdens    :    801.31s CPU    908.47s WALL (     178 calls)
     addusd:skk   :      1.91s CPU      2.02s WALL (     712 calls)
     addusd:dgemm :    458.10s CPU    545.22s WALL (    1424 calls)
     addusd:qvan2 :    335.49s CPU    336.23s WALL (    1424 calls)

     Called by *cgdiagg:
     h_psi        :  12346.92s CPU  12609.89s WALL ( 1213815 calls)
     s_psi        :   8266.55s CPU   8304.11s WALL ( 2425522 calls)

     Called by h_psi:
     h_psi:calbec :   4941.30s CPU   5038.54s WALL ( 1213815 calls)
     vloc_psi     :   2584.58s CPU   2735.41s WALL ( 1213815 calls)
     add_vuspsi   :   4787.93s CPU   4805.31s WALL ( 1213815 calls)
     hs_1psi      :  12838.90s CPU  13072.52s WALL ( 1211707 calls)
     s_1psi       :   7095.93s CPU   7155.78s WALL ( 1211707 calls)

     General routines
     calbec       :  10110.21s CPU  10261.86s WALL ( 2428438 calls)
     fft          :     52.81s CPU     56.16s WALL (    5234 calls)
     ffts         :      0.96s CPU      1.02s WALL (     734 calls)
     fftw         :   2506.77s CPU   2659.52s WALL ( 3694006 calls)
     interpolate  :      4.83s CPU      5.10s WALL (     378 calls)

     Parallel routines
     fft_scatt_xy :    391.03s CPU    415.94s WALL ( 3699974 calls)
     fft_scatt_yz :    525.63s CPU    570.88s WALL ( 3699974 calls)

     PWSCF        :      9h 4m CPU      9h15m WALL


   This run was terminated on:   4:18: 9   3Oct2024            

=------------------------------------------------------------------------------=
   JOB DONE.
=------------------------------------------------------------------------------=
