
     Program PWSCF v.6.7MaX starts on 27Nov2024 at 19:45:40 

     This program is part of the open-source Quantum ESPRESSO suite
     for quantum simulation of materials; please cite
         "P. Giannozzi et al., J. Phys.:Condens. Matter 21 395502 (2009);
         "P. Giannozzi et al., J. Phys.:Condens. Matter 29 465901 (2017);
          URL http://www.quantum-espresso.org", 
     in publications or presentations arising from this work. More details at
     http://www.quantum-espresso.org/quote

     Parallel version (MPI), running on     4 processors

     MPI processes distributed on     1 nodes
     R & G space division:  proc/nbgrp/npool/nimage =       4
     Reading input from nscf.bifeo3_bp.in

     Current dimensions of program PWSCF are:
     Max number of different atomic species (ntypx) = 10
     Max number of k-points (npk) =  40000
     Max angular momentum in pseudopotentials (lmaxx) =  3
     Message from routine iosys:
     wrong startingpot: use default (1)

     Atomic positions and unit cell read from directory:
     /home/aldair1809/Documentos/QE/4BFO/temp_tipoA/nscf/bifeo3.save/
     Atomic positions from file used, from input discarded


     Subspace diagonalization in iterative solution of the eigenvalue problem:
     one sub-group per band group will be used
     scalapack distributed-memory algorithm (size of sub-group:  2*  2 procs)


     Parallelization info
     --------------------
     sticks:   dense  smooth     PW     G-vecs:    dense   smooth      PW
     Min         601     300     87                59009    20824    3211
     Max         602     301     88                59018    20831    3220
     Sum        2407    1201    349               236061    83311   12859



     bravais-lattice index     =            4
     lattice parameter (alat)  =      10.4531  a.u.
     unit-cell volume          =    2440.6662 (a.u.)^3
     number of atoms/cell      =           30
     number of atomic types    =            4
     number of electrons       =       294.00
     number of Kohn-Sham states=          176
     kinetic-energy cutoff     =      40.0000  Ry
     charge density cutoff     =     320.0000  Ry
     Exchange-correlation=  SLA  PW   PBX  PBC
                           (   1   4   3   4   0   0   0)

     celldm(1)=  10.453102  celldm(2)=   0.000000  celldm(3)=   2.467415
     celldm(4)=   0.000000  celldm(5)=   0.000000  celldm(6)=   0.000000

     crystal axes: (cart. coord. in units of alat)
               a(1) = (   1.000000   0.000000   0.000000 )  
               a(2) = (  -0.500000   0.866025   0.000000 )  
               a(3) = (   0.000000   0.000000   2.467415 )  

     reciprocal axes: (cart. coord. in units 2 pi/alat)
               b(1) = (  1.000000  0.577350 -0.000000 )  
               b(2) = (  0.000000  1.154701  0.000000 )  
               b(3) = (  0.000000 -0.000000  0.405282 )  


     PseudoPot. # 1 for O  read from file:
     /home/aldair1809/Programas/QE/q-e-qe-7.3/pseudo/o_pbe_v1.2.uspp.F.UPF
     MD5 check sum: 734c27235a0248c51dbae37a1fbe46ec
     Pseudo is Ultrasoft + core correction, Zval =  6.0
     Generated by new atomic code, or converted to UPF format
     Using radial grid of  737 points,  5 beta functions with: 
                l(1) =   0
                l(2) =   0
                l(3) =   1
                l(4) =   1
                l(5) =   2
     Q(r) pseudized with  8 coefficients,  rinner =    0.900   0.900   0.900
                                                       0.900   0.900

     PseudoPot. # 2 for Bi read from file:
     /home/aldair1809/Programas/QE/q-e-qe-7.3/pseudo/bi_pbe_v1.uspp.F.UPF
     MD5 check sum: cceb9f28ec65b6d7ff33140f5b0b1758
     Pseudo is Ultrasoft + core correction, Zval = 15.0
     Generated by new atomic code, or converted to UPF format
     Using radial grid of  899 points,  6 beta functions with: 
                l(1) =   0
                l(2) =   0
                l(3) =   1
                l(4) =   1
                l(5) =   2
                l(6) =   2
     Q(r) pseudized with  6 coefficients,  rinner =    1.000   1.000   1.000
                                                       1.000   1.000

     PseudoPot. # 3 for Fe read from file:
     /home/aldair1809/Programas/QE/q-e-qe-7.3/pseudo/fe_pbe_v1.5.uspp.F.UPF
     MD5 check sum: a130daea23fe5165f5d574ae7f82ed95
     Pseudo is Ultrasoft + core correction, Zval = 16.0
     Generated by new atomic code, or converted to UPF format
     Using radial grid of  861 points,  6 beta functions with: 
                l(1) =   0
                l(2) =   0
                l(3) =   1
                l(4) =   1
                l(5) =   2
                l(6) =   2
     Q(r) pseudized with  8 coefficients,  rinner =    1.000   1.000   1.000
                                                       1.000   1.000

     PseudoPot. # 4 for Fe read from file:
     /home/aldair1809/Programas/QE/q-e-qe-7.3/pseudo/fe_pbe_v1.5.uspp.F.UPF
     MD5 check sum: a130daea23fe5165f5d574ae7f82ed95
     Pseudo is Ultrasoft + core correction, Zval = 16.0
     Generated by new atomic code, or converted to UPF format
     Using radial grid of  861 points,  6 beta functions with: 
                l(1) =   0
                l(2) =   0
                l(3) =   1
                l(4) =   1
                l(5) =   2
                l(6) =   2
     Q(r) pseudized with  8 coefficients,  rinner =    1.000   1.000   1.000
                                                       1.000   1.000

     atomic species   valence    mass     pseudopotential
        O              6.00    15.99940     O ( 1.00)
        Bi            15.00   208.98040     Bi( 1.00)
        Fe1           16.00    55.84500     Fe( 1.00)
        Fe2           16.00    55.84500     Fe( 1.00)

     Starting magnetic structure 
     atomic species   magnetization
        O            0.000
        Bi           0.000
        Fe1         -0.800
        Fe2          0.800


     Simplified LDA+U calculation (l_max = 2) with parameters (eV):
     atomic species    L          U    alpha       J0     beta
        Fe1            2     4.1000   0.0000   0.0000   0.0000
        Fe2            2     4.1000   0.0000   0.0000   0.0000



     No symmetry found


                                    s                        frac. trans.

      isym =  1     identity                                     

 cryst.   s( 1) = (     1          0          0      )
                  (     0          1          0      )
                  (     0          0          1      )

 cart.    s( 1) = (  1.0000000  0.0000000  0.0000000 )
                  (  0.0000000  1.0000000  0.0000000 )
                  (  0.0000000  0.0000000  1.0000000 )


     point group C_1 (1)    
     there are  1 classes
     the character table:

       E    
A      1.00

     the symmetry operations in each class and the name of the first element:

     E        1
          identity                                               

   Cartesian axes

     site n.     atom                  positions (alat units)
         1           Fe1 tau(   1) = (   0.0000000   0.0000000   1.9173194  )
         2           Fe1 tau(   2) = (  -0.0000005   0.5773506   2.3408318  )
         3           Fe1 tau(   3) = (   0.5000005   0.2886748   1.4987656  )
         4           Fe2 tau(   4) = (   0.5000005   0.2886748   0.2650306  )
         5           Fe2 tau(   5) = (   0.0000000   0.0000000   0.6836385  )
         6           Fe2 tau(   6) = (  -0.0000005   0.5773506   1.1071829  )
         7           Bi  tau(   7) = (   0.5000005   0.2886748   2.0704508  )
         8           Bi  tau(   8) = (  -0.0000005   0.5773506   1.6683657  )
         9           Bi  tau(   9) = (  -0.0000005   0.5773506   0.4345959  )
        10           Bi  tau(  10) = (   0.0000000   0.0000000   0.0112133  )
        11           Bi  tau(  11) = (   0.0000000   0.0000000   1.2449306  )
        12           Bi  tau(  12) = (   0.5000005   0.2886748   0.8366940  )
        13           O   tau(  13) = (  -0.3015234   0.6617768   2.1713309  )
        14           O   tau(  14) = (   0.0776467   0.2740092   2.1713309  )
        15           O   tau(  15) = (   0.2238783   0.7962639   2.1713309  )
        16           O   tau(  16) = (   0.4195843   0.5622547   1.7587968  )
        17           O   tau(  17) = (   0.3032805   0.0822442   1.7587968  )
        18           O   tau(  18) = (   0.7771337   0.2215274   1.7587968  )
        19           O   tau(  19) = (   0.6967279   0.0822438   0.5250654  )
        20           O   tau(  20) = (   0.5804103   0.5622631   0.5250654  )
        21           O   tau(  21) = (   0.2228602   0.2215194   0.5250654  )
        22           O   tau(  22) = (  -0.0757596   0.8510068   0.1130324  )
        23           O   tau(  23) = (  -0.1991137   0.3749123   0.1130324  )
        24           O   tau(  24) = (   0.2748733   0.5061317   0.1130324  )
        25           O   tau(  25) = (   0.1991050   0.3749017   1.3467955  )
        26           O   tau(  26) = (   0.0757731   0.8510045   1.3467955  )
        27           O   tau(  27) = (  -0.2748781   0.5061446   1.3467955  )
        28           O   tau(  28) = (  -0.0776631   0.2740052   0.9376559  )
        29           O   tau(  29) = (   0.3015366   0.6617637   0.9376559  )
        30           O   tau(  30) = (  -0.2238720   0.7962811   0.9376559  )

   Crystallographic axes

     site n.     atom                  positions (cryst. coord.)
         1           Fe1 tau(   1) = (  0.0000000  0.0000000  0.7770559  )
         2           Fe1 tau(   2) = (  0.3333330  0.6666670  0.9486980  )
         3           Fe1 tau(   3) = (  0.6666670  0.3333330  0.6074234  )
         4           Fe2 tau(   4) = (  0.6666670  0.3333330  0.1074122  )
         5           Fe2 tau(   5) = (  0.0000000  0.0000000  0.2770667  )
         6           Fe2 tau(   6) = (  0.3333330  0.6666670  0.4487218  )
         7           Bi  tau(   7) = (  0.6666670  0.3333330  0.8391174  )
         8           Bi  tau(   8) = (  0.3333330  0.6666670  0.6761593  )
         9           Bi  tau(   9) = (  0.3333330  0.6666670  0.1761341  )
        10           Bi  tau(  10) = (  0.0000000  0.0000000  0.0045446  )
        11           Bi  tau(  11) = (  0.0000000  0.0000000  0.5045485  )
        12           Bi  tau(  12) = (  0.6666670  0.3333330  0.3390974  )
        13           O   tau(  13) = (  0.0805536  0.7641541  0.8800023  )
        14           O   tau(  14) = (  0.2358459  0.3163985  0.8800023  )
        15           O   tau(  15) = (  0.6836015  0.9194464  0.8800023  )
        16           O   tau(  16) = (  0.7442022  0.6492358  0.7128095  )
        17           O   tau(  17) = (  0.3507642  0.0949674  0.7128095  )
        18           O   tau(  18) = (  0.9050326  0.2557978  0.7128095  )
        19           O   tau(  19) = (  0.7442114  0.0949669  0.2127998  )
        20           O   tau(  20) = (  0.9050331  0.6492455  0.2127998  )
        21           O   tau(  21) = (  0.3507545  0.2557886  0.2127998  )
        22           O   tau(  22) = (  0.4155694  0.9826580  0.0458101  )
        23           O   tau(  23) = (  0.0173420  0.4329115  0.0458101  )
        24           O   tau(  24) = (  0.5670885  0.5844306  0.0458101  )
        25           O   tau(  25) = (  0.4155546  0.4328992  0.5458326  )
        26           O   tau(  26) = (  0.5671008  0.9826554  0.5458326  )
        27           O   tau(  27) = (  0.0173446  0.5844454  0.5458326  )
        28           O   tau(  28) = (  0.0805338  0.3163939  0.3800155  )
        29           O   tau(  29) = (  0.6836061  0.7641389  0.3800155  )
        30           O   tau(  30) = (  0.2358611  0.9194662  0.3800155  )

     number of k points=    12
                       cart. coord. in units 2pi/alat
        k(    1) = (   0.0000000   0.0000000   0.0000000), wk =   0.0277778
        k(    2) = (   0.0000000   0.0000000   0.1350941), wk =   0.0277778
        k(    3) = (   0.0000000   0.0000000   0.2701883), wk =   0.0277778
        k(    4) = (   0.0000000   0.0000000   0.4052824), wk =   0.0277778
        k(    5) = (   0.0000000   0.3849002   0.0000000), wk =   0.1666667
        k(    6) = (   0.0000000   0.3849002   0.1350941), wk =   0.1666667
        k(    7) = (   0.0000000   0.3849002   0.2701883), wk =   0.1666667
        k(    8) = (   0.0000000   0.3849002   0.4052824), wk =   0.1666667
        k(    9) = (   0.3333333   0.5773503   0.0000000), wk =   0.0555556
        k(   10) = (   0.3333333   0.5773503   0.1350941), wk =   0.0555556
        k(   11) = (   0.3333333   0.5773503   0.2701883), wk =   0.0555556
        k(   12) = (   0.3333333   0.5773503   0.4052824), wk =   0.0555556

                       cryst. coord.
        k(    1) = (   0.0000000   0.0000000   0.0000000), wk =   0.0277778
        k(    2) = (   0.0000000   0.0000000   0.3333333), wk =   0.0277778
        k(    3) = (   0.0000000   0.0000000   0.6666667), wk =   0.0277778
        k(    4) = (   0.0000000   0.0000000   1.0000000), wk =   0.0277778
        k(    5) = (   0.0000000   0.3333333   0.0000000), wk =   0.1666667
        k(    6) = (   0.0000000   0.3333333   0.3333333), wk =   0.1666667
        k(    7) = (   0.0000000   0.3333333   0.6666667), wk =   0.1666667
        k(    8) = (   0.0000000   0.3333333   1.0000000), wk =   0.1666667
        k(    9) = (   0.3333333   0.3333333   0.0000000), wk =   0.0555556
        k(   10) = (   0.3333333   0.3333333   0.3333333), wk =   0.0555556
        k(   11) = (   0.3333333   0.3333333   0.6666667), wk =   0.0555556
        k(   12) = (   0.3333333   0.3333333   1.0000000), wk =   0.0555556

     Dense  grid:   236061 G-vectors     FFT dimensions: (  60,  60, 150)

     Smooth grid:    83311 G-vectors     FFT dimensions: (  45,  45, 108)

     Dynamical RAM for                 wfc:       7.00 MB

     Dynamical RAM for     wfc (w. buffer):       7.00 MB

     Dynamical RAM for             U proj.:       1.19 MB

     Dynamical RAM for  U proj. (w. buff.):       1.19 MB

     Dynamical RAM for           str. fact:       3.60 MB

     Dynamical RAM for           local pot:       0.00 MB

     Dynamical RAM for          nlocal pot:      17.89 MB

     Dynamical RAM for                qrad:       5.74 MB

     Dynamical RAM for          rho,v,vnew:      11.67 MB

     Dynamical RAM for           G-vectors:       3.54 MB

     Dynamical RAM for          h,s,v(r/c):       0.35 MB

     Dynamical RAM for          <psi|beta>:       1.21 MB

     Dynamical RAM for      wfcinit/wfcrot:      17.18 MB

     Dynamical RAM for           addusdens:     184.61 MB

     Estimated static dynamical RAM per process >      61.40 MB

     Estimated max dynamical RAM per process >     246.01 MB

     Estimated total dynamical RAM >     984.03 MB

     Check: negative core charge=   -0.000014
     Generating pointlists ...
     new r_m :   0.1435 (alat units)  1.5003 (a.u.) for type    1
     new r_m :   0.1728 (alat units)  1.8065 (a.u.) for type    2
     new r_m :   0.1435 (alat units)  1.5003 (a.u.) for type    3
     new r_m :   0.1435 (alat units)  1.5003 (a.u.) for type    4

     The potential is recalculated from file :
     /home/aldair1809/Documentos/QE/4BFO/temp_tipoA/nscf/bifeo3.save/charge-density


     negative rho (up, down):  1.183E-01 1.183E-01
 --- in v_hubbard ---
Hubbard energy    0.6897
 -------
     Number of +U iterations with fixed ns =  0
     Starting occupations:
 --- enter write_ns ---
 LDA+U parameters:
U( 3)     =  4.10000000
U( 4)     =  4.10000000
atom    1   Tr[ns(na)] (up, down, total) =   0.96490  4.99063  5.95553
   spin  1
    eigenvalues: 
  0.104  0.120  0.120  0.311  0.311
    eigenvectors:
  1.000  0.000  0.000  0.000  0.000
  0.000  0.057  0.304  0.011  0.628
  0.000  0.304  0.057  0.628  0.011
  0.000  0.158  0.481  0.185  0.176
  0.000  0.481  0.158  0.176  0.185
    occupations:
  0.104 -0.000 -0.000 -0.000 -0.000
 -0.000  0.242 -0.000  0.055  0.073
 -0.000 -0.000  0.242  0.073 -0.055
 -0.000  0.055  0.073  0.189  0.000
 -0.000  0.073 -0.055  0.000  0.189
   spin  2
    eigenvalues: 
  0.998  0.998  0.998  0.999  0.999
    eigenvectors:
  0.000  0.000  1.000  0.000  0.000
  0.042  0.037  0.000  0.109  0.812
  0.037  0.042  0.000  0.812  0.109
  0.217  0.704  0.000  0.078  0.001
  0.704  0.217  0.000  0.001  0.078
    occupations:
  0.998 -0.000 -0.000 -0.000 -0.000
 -0.000  0.998 -0.000 -0.000 -0.000
 -0.000 -0.000  0.998 -0.000  0.000
 -0.000 -0.000 -0.000  0.998  0.000
 -0.000 -0.000  0.000  0.000  0.998
atomic mag. moment =  -4.02573
atom    2   Tr[ns(na)] (up, down, total) =   1.00214  4.98185  5.98399
   spin  1
    eigenvalues: 
  0.105  0.114  0.114  0.334  0.334
    eigenvectors:
  1.000  0.000  0.000  0.000  0.000
  0.000  0.292  0.046  0.436  0.226
  0.000  0.046  0.292  0.226  0.436
  0.000  0.061  0.601  0.001  0.336
  0.000  0.601  0.061  0.336  0.001
    occupations:
  0.105 -0.000 -0.000 -0.000 -0.000
 -0.000  0.260 -0.000 -0.066  0.080
 -0.000 -0.000  0.260  0.080  0.066
 -0.000 -0.066  0.080  0.188  0.000
 -0.000  0.080  0.066  0.000  0.188
   spin  2
    eigenvalues: 
  0.994  0.994  0.997  0.998  0.998
    eigenvectors:
  0.000  0.000  1.000  0.000  0.000
  0.332  0.357  0.000  0.236  0.076
  0.357  0.332  0.000  0.076  0.236
  0.000  0.311  0.000  0.058  0.631
  0.311  0.000  0.000  0.631  0.058
    occupations:
  0.997 -0.000 -0.000 -0.000 -0.000
 -0.000  0.995 -0.000  0.001 -0.001
 -0.000 -0.000  0.995 -0.001 -0.001
 -0.000  0.001 -0.001  0.997  0.000
 -0.000 -0.001 -0.001  0.000  0.997
atomic mag. moment =  -3.97971
atom    3   Tr[ns(na)] (up, down, total) =   1.02107  4.98156  6.00263
   spin  1
    eigenvalues: 
  0.123  0.123  0.139  0.318  0.318
    eigenvectors:
  0.000  0.000  1.000  0.000  0.000
  0.374  0.104  0.000  0.455  0.067
  0.104  0.374  0.000  0.067  0.455
  0.027  0.494  0.000  0.056  0.423
  0.494  0.027  0.000  0.423  0.056
    occupations:
  0.139 -0.000 -0.000 -0.000 -0.000
 -0.000  0.225 -0.000 -0.064  0.074
 -0.000 -0.000  0.225  0.074  0.064
 -0.000 -0.064  0.074  0.216  0.000
 -0.000  0.074  0.064  0.000  0.216
   spin  2
    eigenvalues: 
  0.994  0.994  0.997  0.998  0.998
    eigenvectors:
  0.000  0.000  1.000  0.000  0.000
  0.233  0.080  0.000  0.297  0.389
  0.080  0.233  0.000  0.389  0.297
  0.115  0.572  0.000  0.003  0.310
  0.572  0.115  0.000  0.310  0.003
    occupations:
  0.997 -0.000 -0.000 -0.000 -0.000
 -0.000  0.997 -0.000  0.001 -0.001
 -0.000 -0.000  0.997 -0.001 -0.001
 -0.000  0.001 -0.001  0.996  0.000
 -0.000 -0.001 -0.001  0.000  0.996
atomic mag. moment =  -3.96050
atom    4   Tr[ns(na)] (up, down, total) =   4.98157  1.02117  6.00274
   spin  1
    eigenvalues: 
  0.994  0.994  0.997  0.998  0.998
    eigenvectors:
  0.000  0.000  1.000  0.000  0.000
  0.001  0.312  0.000  0.000  0.686
  0.312  0.001  0.000  0.686  0.000
  0.189  0.498  0.000  0.109  0.204
  0.498  0.189  0.000  0.204  0.109
    occupations:
  0.997 -0.000 -0.000 -0.000 -0.000
 -0.000  0.997 -0.000 -0.001 -0.001
 -0.000 -0.000  0.997 -0.001  0.001
 -0.000 -0.001 -0.001  0.996  0.000
 -0.000 -0.001  0.001  0.000  0.996
   spin  2
    eigenvalues: 
  0.123  0.123  0.139  0.318  0.318
    eigenvectors:
  0.000  0.000  1.000  0.000  0.000
  0.038  0.441  0.000  0.014  0.508
  0.441  0.038  0.000  0.508  0.014
  0.152  0.369  0.000  0.195  0.283
  0.369  0.152  0.000  0.283  0.195
    occupations:
  0.139 -0.000 -0.000 -0.000 -0.000
 -0.000  0.225 -0.000  0.064  0.074
 -0.000 -0.000  0.225  0.074 -0.064
 -0.000  0.064  0.074  0.216  0.000
 -0.000  0.074 -0.064  0.000  0.216
atomic mag. moment =   3.96041
atom    5   Tr[ns(na)] (up, down, total) =   4.99064  0.96498  5.95562
   spin  1
    eigenvalues: 
  0.998  0.998  0.998  0.999  0.999
    eigenvectors:
  0.000  0.000  1.000  0.000  0.000
  0.074  0.005  0.000  0.198  0.723
  0.005  0.074  0.000  0.723  0.198
  0.208  0.713  0.000  0.044  0.035
  0.713  0.208  0.000  0.035  0.044
    occupations:
  0.998 -0.000 -0.000 -0.000 -0.000
 -0.000  0.998 -0.000  0.000 -0.000
 -0.000 -0.000  0.998 -0.000 -0.000
 -0.000  0.000 -0.000  0.998  0.000
 -0.000 -0.000 -0.000  0.000  0.998
   spin  2
    eigenvalues: 
  0.104  0.120  0.120  0.311  0.311
    eigenvectors:
  1.000  0.000  0.000  0.000  0.000
  0.000  0.321  0.039  0.503  0.137
  0.000  0.039  0.321  0.137  0.503
  0.000  0.058  0.582  0.009  0.351
  0.000  0.582  0.058  0.351  0.009
    occupations:
  0.104 -0.000 -0.000 -0.000 -0.000
 -0.000  0.242 -0.000 -0.055  0.073
 -0.000 -0.000  0.242  0.073  0.055
 -0.000 -0.055  0.073  0.189  0.000
 -0.000  0.073  0.055  0.000  0.189
atomic mag. moment =   4.02566
atom    6   Tr[ns(na)] (up, down, total) =   4.98186  1.00211  5.98397
   spin  1
    eigenvalues: 
  0.994  0.994  0.997  0.998  0.998
    eigenvectors:
  0.000  0.000  1.000  0.000  0.000
  0.000  0.689  0.000  0.029  0.282
  0.689  0.000  0.000  0.282  0.029
  0.146  0.165  0.000  0.131  0.558
  0.165  0.146  0.000  0.558  0.131
    occupations:
  0.997 -0.000 -0.000 -0.000 -0.000
 -0.000  0.995 -0.000 -0.001 -0.001
 -0.000 -0.000  0.995 -0.001  0.001
 -0.000 -0.001 -0.001  0.997  0.000
 -0.000 -0.001  0.001  0.000  0.997
   spin  2
    eigenvalues: 
  0.105  0.114  0.114  0.334  0.334
    eigenvectors:
  1.000  0.000  0.000  0.000  0.000
  0.000  0.048  0.289  0.005  0.657
  0.000  0.289  0.048  0.657  0.005
  0.000  0.149  0.513  0.172  0.166
  0.000  0.513  0.149  0.166  0.172
    occupations:
  0.105 -0.000 -0.000 -0.000 -0.000
 -0.000  0.260 -0.000  0.066  0.080
 -0.000 -0.000  0.260  0.080 -0.066
 -0.000  0.066  0.080  0.188  0.000
 -0.000  0.080 -0.066  0.000  0.188
atomic mag. moment =   3.97974
N of occupied +U levels =   35.884480
 --- exit write_ns ---
 Atomic wfc used for LDA+U Projector are NOT orthogonalized
     Starting wfcs are  204 randomized atomic wfcs

     Band Structure Calculation
     CG style diagonalization

     Computing kpt #:     1  of    24
     c_bands:  3 eigenvalues not converged
     total cpu time spent up to now is      414.5 secs

     Computing kpt #:     2  of    24
     total cpu time spent up to now is      782.2 secs

     Computing kpt #:     3  of    24
     total cpu time spent up to now is     1119.0 secs

     Computing kpt #:     4  of    24
     c_bands:  4 eigenvalues not converged
     total cpu time spent up to now is     1355.9 secs

     Computing kpt #:     5  of    24
     c_bands:  1 eigenvalues not converged
     total cpu time spent up to now is     1588.0 secs

     Computing kpt #:     6  of    24
     c_bands:  1 eigenvalues not converged
     total cpu time spent up to now is     1969.5 secs

     Computing kpt #:     7  of    24
     total cpu time spent up to now is     2356.4 secs

     Computing kpt #:     8  of    24
     c_bands:  1 eigenvalues not converged
     total cpu time spent up to now is     2616.1 secs

     Computing kpt #:     9  of    24
     c_bands:  2 eigenvalues not converged
     total cpu time spent up to now is     2844.2 secs

     Computing kpt #:    10  of    24
     c_bands:  1 eigenvalues not converged
     total cpu time spent up to now is     3077.6 secs

     Computing kpt #:    11  of    24
     c_bands:  2 eigenvalues not converged
     total cpu time spent up to now is     3312.7 secs

     Computing kpt #:    12  of    24
     c_bands:  2 eigenvalues not converged
     total cpu time spent up to now is     3539.1 secs

     Computing kpt #:    13  of    24
     c_bands:  3 eigenvalues not converged
     total cpu time spent up to now is     3770.6 secs

     Computing kpt #:    14  of    24
     total cpu time spent up to now is     3967.8 secs

     Computing kpt #:    15  of    24
     total cpu time spent up to now is     4167.7 secs

     Computing kpt #:    16  of    24
     c_bands:  2 eigenvalues not converged
     total cpu time spent up to now is     4396.6 secs

     Computing kpt #:    17  of    24
     c_bands:  1 eigenvalues not converged
     total cpu time spent up to now is     4625.6 secs

     Computing kpt #:    18  of    24
     c_bands:  1 eigenvalues not converged
     total cpu time spent up to now is     4854.2 secs

     Computing kpt #:    19  of    24
     total cpu time spent up to now is     5069.3 secs

     Computing kpt #:    20  of    24
     c_bands:  1 eigenvalues not converged
     total cpu time spent up to now is     5300.1 secs

     Computing kpt #:    21  of    24
     c_bands:  2 eigenvalues not converged
     total cpu time spent up to now is     5526.2 secs

     Computing kpt #:    22  of    24
     c_bands:  2 eigenvalues not converged
     total cpu time spent up to now is     5757.1 secs

     Computing kpt #:    23  of    24
     total cpu time spent up to now is     5989.0 secs

     Computing kpt #:    24  of    24
     c_bands:  2 eigenvalues not converged
     total cpu time spent up to now is     6228.5 secs

     ethr =  3.40E-11,  avg # of iterations = 48.2

     total cpu time spent up to now is     6228.5 secs

     End of band structure calculation

 ------ SPIN UP ------------


          k = 0.0000 0.0000 0.0000 ( 10443 PWs)   bands (ev):

   -79.4746 -79.2927 -79.2403 -74.1959 -74.0774 -74.0603 -45.4755 -45.4112
   -45.4112 -45.2829 -45.2828 -45.2405 -45.2404 -45.1679 -45.1679 -40.3333
   -40.2807 -40.2807 -40.2142 -40.2113 -40.1672 -40.1671 -40.1486 -40.1486
   -10.5770 -10.5770 -10.5538 -10.5538 -10.5379 -10.5297 -10.5109 -10.5109
   -10.4949 -10.4949 -10.4882 -10.4882 -10.4656 -10.4656 -10.4412 -10.4311
   -10.4181 -10.4181 -10.4078 -10.4078 -10.3981 -10.3981 -10.3929 -10.3878
   -10.3878 -10.3857 -10.3595 -10.3595 -10.3500 -10.3500  -7.2725  -6.8793
    -6.7669  -5.9275  -5.8561  -5.5581  -5.5580  -5.4491  -5.4490  -5.3489
    -5.3489  -5.2917  -5.2246  -5.2245  -4.9926  -4.9926  -4.8366  -4.8365
     1.6475   1.7729   1.8279   2.5204   2.6349   3.4251   4.1706   4.1706
     4.3125   4.3125   4.6576   4.6576   4.8724   4.8725   4.8945   5.0243
     5.0793   5.1396   5.1396   5.4766   5.5251   5.5251   6.1937   6.3369
     6.3370   6.4672   6.7611   6.7611   6.9047   7.0438   7.0438   7.3439
     7.4026   7.4027   7.5140   7.6009   7.8229   7.8229   8.1127   8.1128
     8.3461   8.4381   8.4381   8.4440   8.9373   8.9374   9.1747   9.1748
     9.3820   9.4289   9.4289   9.4601   9.6883   9.6883  10.0638  10.0638
    10.1647  10.1648  10.1691  10.2159  10.2160  10.4502  10.4502  10.6657
    10.6657  10.8148  10.9511  11.1599  11.1826  11.1827  11.2595  11.2867
    11.3452  11.9443  11.9444  13.7359  13.7359  13.8793  13.9360  13.9901
    13.9901  14.0519  14.1737  14.1737  14.3009  14.3009  14.9811  14.9811
    15.6069  15.6380  15.6380  15.8359  15.9100  16.0424  17.2639  17.2639
    17.2915  17.2915  17.3728  17.3728  17.6557  17.7312  17.8065  17.8066

     occupation numbers 
     1.0000   1.0000   1.0000   1.0000   1.0000   1.0000   1.0000   1.0000
     1.0000   1.0000   1.0000   1.0000   1.0000   1.0000   1.0000   1.0000
     1.0000   1.0000   1.0000   1.0000   1.0000   1.0000   1.0000   1.0000
     1.0000   1.0000   1.0000   1.0000   1.0000   1.0000   1.0000   1.0000
     1.0000   1.0000   1.0000   1.0000   1.0000   1.0000   1.0000   1.0000
     1.0000   1.0000   1.0000   1.0000   1.0000   1.0000   1.0000   1.0000
     1.0000   1.0000   1.0000   1.0000   1.0000   1.0000   1.0000   1.0000
     1.0000   1.0000   1.0000   1.0000   1.0000   1.0000   1.0000   1.0000
     1.0000   1.0000   1.0000   1.0000   1.0000   1.0000   1.0000   1.0000
     1.0000   1.0000   1.0000   1.0000   1.0000   1.0000   1.0000   1.0000
     1.0000   1.0000   1.0000   1.0000   1.0000   1.0000   1.0000   1.0000
     1.0000   1.0000   1.0000   1.0000   1.0000   1.0000   1.0000   1.0000
     1.0000   1.0000   1.0000   1.0000   1.0000   1.0000   1.0000   1.0000
     1.0000   1.0000   1.0000   1.0000   1.0000   1.0000   1.0000   1.0000
     1.0000   1.0000   1.0000   1.0000   1.0000   1.0000   1.0000   1.0000
     1.0000   1.0000   1.0000   1.0000   1.0000   1.0000   1.0000   1.0000
     1.0000   1.0000   1.0000   1.0000   1.0000   1.0000   1.0000   1.0000
     1.0000   1.0000   1.0000   1.0000   1.0000   1.0000   1.0000   1.0000
     1.0000   1.0000   1.0000   0.0000   0.0000   0.0000   0.0000   0.0000
     0.0000   0.0000   0.0000   0.0000   0.0000   0.0000   0.0000   0.0000
     0.0000   0.0000   0.0000   0.0000   0.0000   0.0000   0.0000   0.0000
     0.0000   0.0000   0.0000   0.0000   0.0000   0.0000   0.0000   0.0000

          k = 0.0000 0.0000 0.1351 ( 10462 PWs)   bands (ev):

   -79.4746 -79.2927 -79.2403 -74.1959 -74.0774 -74.0603 -45.4755 -45.4112
   -45.4112 -45.2829 -45.2828 -45.2405 -45.2404 -45.1679 -45.1679 -40.3333
   -40.2807 -40.2807 -40.2142 -40.2113 -40.1672 -40.1671 -40.1486 -40.1486
   -10.5737 -10.5736 -10.5604 -10.5603 -10.5379 -10.5300 -10.5056 -10.5051
   -10.4963 -10.4952 -10.4850 -10.4844 -10.4716 -10.4715 -10.4397 -10.4332
   -10.4163 -10.4159 -10.4117 -10.4111 -10.3950 -10.3950 -10.3920 -10.3890
   -10.3888 -10.3862 -10.3575 -10.3575 -10.3517 -10.3516  -7.2402  -7.0331
    -6.5347  -6.2141  -5.6308  -5.5582  -5.5581  -5.4489  -5.4483  -5.3493
    -5.3486  -5.3411  -5.2254  -5.2252  -4.9919  -4.9916  -4.8370  -4.8369
     1.6394   1.7306   1.9657   2.2275   2.9640   3.2939   4.1705   4.1709
     4.3145   4.3150   4.6569   4.6571   4.8644   4.8704   4.8939   5.0125
     5.0753   5.1385   5.1424   5.5204   5.5282   5.5365   5.9984   6.3421
     6.3596   6.7239   6.7279   6.7496   7.0352   7.1151   7.1152   7.1484
     7.3412   7.4063   7.4204   7.6338   7.7845   7.8593   8.0573   8.0812
     8.0831   8.4020   8.4625   8.7892   8.7995   8.8896   9.1586   9.3731
     9.3928   9.4871   9.5247   9.7056   9.7266   9.7309   9.8793   9.8928
     9.9527   9.9924  10.0222  10.3369  10.3401  10.4994  10.5118  10.6558
    10.6733  10.8409  10.9996  11.0736  11.1494  11.1673  11.1815  11.3630
    11.4707  11.9455  11.9538  13.7357  13.7389  13.8523  13.9150  13.9889
    13.9904  14.0647  14.1713  14.1713  14.2990  14.3008  14.9848  14.9868
    15.2701  15.4363  15.6355  15.6363  16.5444  16.6826  17.2611  17.2622
    17.3102  17.3146  17.3185  17.4124  17.4132  17.4158  17.5951  17.6018

     occupation numbers 
     1.0000   1.0000   1.0000   1.0000   1.0000   1.0000   1.0000   1.0000
     1.0000   1.0000   1.0000   1.0000   1.0000   1.0000   1.0000   1.0000
     1.0000   1.0000   1.0000   1.0000   1.0000   1.0000   1.0000   1.0000
     1.0000   1.0000   1.0000   1.0000   1.0000   1.0000   1.0000   1.0000
     1.0000   1.0000   1.0000   1.0000   1.0000   1.0000   1.0000   1.0000
     1.0000   1.0000   1.0000   1.0000   1.0000   1.0000   1.0000   1.0000
     1.0000   1.0000   1.0000   1.0000   1.0000   1.0000   1.0000   1.0000
     1.0000   1.0000   1.0000   1.0000   1.0000   1.0000   1.0000   1.0000
     1.0000   1.0000   1.0000   1.0000   1.0000   1.0000   1.0000   1.0000
     1.0000   1.0000   1.0000   1.0000   1.0000   1.0000   1.0000   1.0000
     1.0000   1.0000   1.0000   1.0000   1.0000   1.0000   1.0000   1.0000
     1.0000   1.0000   1.0000   1.0000   1.0000   1.0000   1.0000   1.0000
     1.0000   1.0000   1.0000   1.0000   1.0000   1.0000   1.0000   1.0000
     1.0000   1.0000   1.0000   1.0000   1.0000   1.0000   1.0000   1.0000
     1.0000   1.0000   1.0000   1.0000   1.0000   1.0000   1.0000   1.0000
     1.0000   1.0000   1.0000   1.0000   1.0000   1.0000   1.0000   1.0000
     1.0000   1.0000   1.0000   1.0000   1.0000   1.0000   1.0000   1.0000
     1.0000   1.0000   1.0000   1.0000   1.0000   1.0000   1.0000   1.0000
     1.0000   1.0000   1.0000   0.0000   0.0000   0.0000   0.0000   0.0000
     0.0000   0.0000   0.0000   0.0000   0.0000   0.0000   0.0000   0.0000
     0.0000   0.0000   0.0000   0.0000   0.0000   0.0000   0.0000   0.0000
     0.0000   0.0000   0.0000   0.0000   0.0000   0.0000   0.0000   0.0000

          k = 0.0000 0.0000 0.2702 ( 10462 PWs)   bands (ev):

   -79.4746 -79.2927 -79.2403 -74.1959 -74.0774 -74.0603 -45.4755 -45.4112
   -45.4112 -45.2829 -45.2828 -45.2405 -45.2404 -45.1679 -45.1679 -40.3333
   -40.2807 -40.2807 -40.2142 -40.2113 -40.1672 -40.1671 -40.1486 -40.1486
   -10.5737 -10.5736 -10.5604 -10.5603 -10.5379 -10.5300 -10.5056 -10.5051
   -10.4963 -10.4952 -10.4850 -10.4844 -10.4716 -10.4715 -10.4397 -10.4332
   -10.4163 -10.4159 -10.4117 -10.4111 -10.3950 -10.3950 -10.3920 -10.3890
   -10.3888 -10.3862 -10.3575 -10.3575 -10.3517 -10.3516  -7.2402  -7.0331
    -6.5347  -6.2141  -5.6308  -5.5582  -5.5581  -5.4489  -5.4483  -5.3493
    -5.3486  -5.3411  -5.2254  -5.2252  -4.9919  -4.9916  -4.8370  -4.8369
     1.6394   1.7306   1.9657   2.2275   2.9640   3.2939   4.1705   4.1709
     4.3145   4.3150   4.6569   4.6571   4.8644   4.8704   4.8939   5.0125
     5.0753   5.1385   5.1424   5.5204   5.5282   5.5365   5.9984   6.3421
     6.3596   6.7239   6.7279   6.7496   7.0352   7.1151   7.1152   7.1484
     7.3412   7.4063   7.4204   7.6338   7.7845   7.8593   8.0573   8.0812
     8.0831   8.4020   8.4625   8.7892   8.7995   8.8896   9.1586   9.3731
     9.3928   9.4871   9.5247   9.7056   9.7266   9.7309   9.8793   9.8928
     9.9527   9.9924  10.0222  10.3369  10.3401  10.4994  10.5118  10.6558
    10.6733  10.8409  10.9996  11.0736  11.1494  11.1673  11.1815  11.3630
    11.4707  11.9455  11.9538  13.7357  13.7389  13.8523  13.9150  13.9889
    13.9904  14.0647  14.1713  14.1713  14.2990  14.3008  14.9848  14.9868
    15.2701  15.4363  15.6355  15.6363  16.5444  16.6826  17.2611  17.2622
    17.3102  17.3146  17.3185  17.4124  17.4132  17.4158  17.5951  17.6018

     occupation numbers 
     1.0000   1.0000   1.0000   1.0000   1.0000   1.0000   1.0000   1.0000
     1.0000   1.0000   1.0000   1.0000   1.0000   1.0000   1.0000   1.0000
     1.0000   1.0000   1.0000   1.0000   1.0000   1.0000   1.0000   1.0000
     1.0000   1.0000   1.0000   1.0000   1.0000   1.0000   1.0000   1.0000
     1.0000   1.0000   1.0000   1.0000   1.0000   1.0000   1.0000   1.0000
     1.0000   1.0000   1.0000   1.0000   1.0000   1.0000   1.0000   1.0000
     1.0000   1.0000   1.0000   1.0000   1.0000   1.0000   1.0000   1.0000
     1.0000   1.0000   1.0000   1.0000   1.0000   1.0000   1.0000   1.0000
     1.0000   1.0000   1.0000   1.0000   1.0000   1.0000   1.0000   1.0000
     1.0000   1.0000   1.0000   1.0000   1.0000   1.0000   1.0000   1.0000
     1.0000   1.0000   1.0000   1.0000   1.0000   1.0000   1.0000   1.0000
     1.0000   1.0000   1.0000   1.0000   1.0000   1.0000   1.0000   1.0000
     1.0000   1.0000   1.0000   1.0000   1.0000   1.0000   1.0000   1.0000
     1.0000   1.0000   1.0000   1.0000   1.0000   1.0000   1.0000   1.0000
     1.0000   1.0000   1.0000   1.0000   1.0000   1.0000   1.0000   1.0000
     1.0000   1.0000   1.0000   1.0000   1.0000   1.0000   1.0000   1.0000
     1.0000   1.0000   1.0000   1.0000   1.0000   1.0000   1.0000   1.0000
     1.0000   1.0000   1.0000   1.0000   1.0000   1.0000   1.0000   1.0000
     1.0000   1.0000   1.0000   0.0000   0.0000   0.0000   0.0000   0.0000
     0.0000   0.0000   0.0000   0.0000   0.0000   0.0000   0.0000   0.0000
     0.0000   0.0000   0.0000   0.0000   0.0000   0.0000   0.0000   0.0000
     0.0000   0.0000   0.0000   0.0000   0.0000   0.0000   0.0000   0.0000

          k = 0.0000 0.0000 0.4053 ( 10443 PWs)   bands (ev):

   -79.4746 -79.2927 -79.2403 -74.1959 -74.0774 -74.0603 -45.4755 -45.4112
   -45.4112 -45.2829 -45.2828 -45.2405 -45.2404 -45.1679 -45.1679 -40.3333
   -40.2807 -40.2807 -40.2142 -40.2113 -40.1672 -40.1671 -40.1486 -40.1486
   -10.5770 -10.5770 -10.5538 -10.5538 -10.5379 -10.5297 -10.5109 -10.5109
   -10.4949 -10.4949 -10.4882 -10.4882 -10.4656 -10.4656 -10.4412 -10.4311
   -10.4181 -10.4181 -10.4078 -10.4078 -10.3981 -10.3981 -10.3929 -10.3878
   -10.3878 -10.3857 -10.3595 -10.3595 -10.3500 -10.3500  -7.2725  -6.8793
    -6.7669  -5.9275  -5.8561  -5.5581  -5.5580  -5.4491  -5.4490  -5.3489
    -5.3489  -5.2917  -5.2246  -5.2245  -4.9926  -4.9926  -4.8366  -4.8365
     1.6475   1.7729   1.8279   2.5204   2.6349   3.4251   4.1706   4.1706
     4.3125   4.3125   4.6576   4.6576   4.8724   4.8725   4.8945   5.0243
     5.0793   5.1396   5.1396   5.4766   5.5251   5.5251   6.1937   6.3369
     6.3370   6.4672   6.7611   6.7611   6.9047   7.0438   7.0438   7.3439
     7.4026   7.4027   7.5140   7.6009   7.8229   7.8229   8.1127   8.1128
     8.3461   8.4381   8.4381   8.4440   8.9373   8.9374   9.1747   9.1748
     9.3820   9.4289   9.4289   9.4601   9.6883   9.6883  10.0638  10.0638
    10.1647  10.1648  10.1691  10.2159  10.2160  10.4502  10.4502  10.6657
    10.6657  10.8148  10.9511  11.1599  11.1826  11.1827  11.2595  11.2867
    11.3452  11.9443  11.9444  13.7359  13.7359  13.8793  13.9360  13.9901
    13.9901  14.0519  14.1737  14.1737  14.3009  14.3009  14.9811  14.9811
    15.6069  15.6380  15.6380  15.8359  15.9100  16.0424  17.2639  17.2639
    17.2915  17.2915  17.3728  17.3728  17.6557  17.7312  17.8066  17.8066

     occupation numbers 
     1.0000   1.0000   1.0000   1.0000   1.0000   1.0000   1.0000   1.0000
     1.0000   1.0000   1.0000   1.0000   1.0000   1.0000   1.0000   1.0000
     1.0000   1.0000   1.0000   1.0000   1.0000   1.0000   1.0000   1.0000
     1.0000   1.0000   1.0000   1.0000   1.0000   1.0000   1.0000   1.0000
     1.0000   1.0000   1.0000   1.0000   1.0000   1.0000   1.0000   1.0000
     1.0000   1.0000   1.0000   1.0000   1.0000   1.0000   1.0000   1.0000
     1.0000   1.0000   1.0000   1.0000   1.0000   1.0000   1.0000   1.0000
     1.0000   1.0000   1.0000   1.0000   1.0000   1.0000   1.0000   1.0000
     1.0000   1.0000   1.0000   1.0000   1.0000   1.0000   1.0000   1.0000
     1.0000   1.0000   1.0000   1.0000   1.0000   1.0000   1.0000   1.0000
     1.0000   1.0000   1.0000   1.0000   1.0000   1.0000   1.0000   1.0000
     1.0000   1.0000   1.0000   1.0000   1.0000   1.0000   1.0000   1.0000
     1.0000   1.0000   1.0000   1.0000   1.0000   1.0000   1.0000   1.0000
     1.0000   1.0000   1.0000   1.0000   1.0000   1.0000   1.0000   1.0000
     1.0000   1.0000   1.0000   1.0000   1.0000   1.0000   1.0000   1.0000
     1.0000   1.0000   1.0000   1.0000   1.0000   1.0000   1.0000   1.0000
     1.0000   1.0000   1.0000   1.0000   1.0000   1.0000   1.0000   1.0000
     1.0000   1.0000   1.0000   1.0000   1.0000   1.0000   1.0000   1.0000
     1.0000   1.0000   1.0000   0.0000   0.0000   0.0000   0.0000   0.0000
     0.0000   0.0000   0.0000   0.0000   0.0000   0.0000   0.0000   0.0000
     0.0000   0.0000   0.0000   0.0000   0.0000   0.0000   0.0000   0.0000
     0.0000   0.0000   0.0000   0.0000   0.0000   0.0000   0.0000   0.0000

          k = 0.0000 0.3849 0.0000 ( 10414 PWs)   bands (ev):

   -79.4746 -79.2927 -79.2403 -74.1959 -74.0774 -74.0603 -45.4755 -45.4112
   -45.4112 -45.2829 -45.2828 -45.2405 -45.2404 -45.1679 -45.1679 -40.3333
   -40.2807 -40.2807 -40.2142 -40.2113 -40.1672 -40.1671 -40.1486 -40.1486
   -10.5708 -10.5602 -10.5497 -10.5419 -10.5350 -10.5270 -10.5036 -10.4969
   -10.4898 -10.4875 -10.4761 -10.4748 -10.4692 -10.4684 -10.4382 -10.4318
   -10.4210 -10.4177 -10.4121 -10.4108 -10.4064 -10.4021 -10.3973 -10.3914
   -10.3897 -10.3840 -10.3708 -10.3661 -10.3602 -10.3543  -6.9139  -6.6014
    -6.4732  -6.1096  -5.8770  -5.7390  -5.6507  -5.5841  -5.5278  -5.4736
    -5.4331  -5.4053  -5.3021  -5.2690  -5.0889  -5.0589  -4.9034  -4.8436
     1.5704   1.7062   1.8957   2.1409   2.4071   2.6185   4.1872   4.2442
     4.4663   4.5074   4.6569   4.7599   4.8543   4.8866   4.9437   5.0542
     5.1054   5.2141   5.2895   5.3778   5.5919   5.9582   6.4973   6.5724
     6.6671   6.9102   7.0513   7.1333   7.2700   7.3123   7.3984   7.4449
     7.5919   7.7256   7.8119   7.9504   8.0009   8.1285   8.2406   8.3425
     8.4673   8.5819   8.6518   8.7659   8.8529   8.8867   8.9666   9.1098
     9.1897   9.2812   9.4509   9.5096   9.6333   9.7084   9.7392   9.7936
     9.8391   9.8872   9.9475   9.9936  10.0717  10.1392  10.2479  10.3306
    10.4947  10.6903  10.8635  10.9458  11.1064  11.1861  11.3791  11.4555
    11.5106  11.7220  11.9330  13.7007  13.7889  13.8265  13.9448  14.0135
    14.0861  14.1148  14.1716  14.2138  14.4212  14.5187  14.5837  14.9201
    15.0754  15.3093  15.5342  15.7676  15.8999  16.0567  16.1687  16.3222
    16.5189  16.5470  16.8190  17.2176  17.3098  17.3307  17.3836  17.6081

     occupation numbers 
     1.0000   1.0000   1.0000   1.0000   1.0000   1.0000   1.0000   1.0000
     1.0000   1.0000   1.0000   1.0000   1.0000   1.0000   1.0000   1.0000
     1.0000   1.0000   1.0000   1.0000   1.0000   1.0000   1.0000   1.0000
     1.0000   1.0000   1.0000   1.0000   1.0000   1.0000   1.0000   1.0000
     1.0000   1.0000   1.0000   1.0000   1.0000   1.0000   1.0000   1.0000
     1.0000   1.0000   1.0000   1.0000   1.0000   1.0000   1.0000   1.0000
     1.0000   1.0000   1.0000   1.0000   1.0000   1.0000   1.0000   1.0000
     1.0000   1.0000   1.0000   1.0000   1.0000   1.0000   1.0000   1.0000
     1.0000   1.0000   1.0000   1.0000   1.0000   1.0000   1.0000   1.0000
     1.0000   1.0000   1.0000   1.0000   1.0000   1.0000   1.0000   1.0000
     1.0000   1.0000   1.0000   1.0000   1.0000   1.0000   1.0000   1.0000
     1.0000   1.0000   1.0000   1.0000   1.0000   1.0000   1.0000   1.0000
     1.0000   1.0000   1.0000   1.0000   1.0000   1.0000   1.0000   1.0000
     1.0000   1.0000   1.0000   1.0000   1.0000   1.0000   1.0000   1.0000
     1.0000   1.0000   1.0000   1.0000   1.0000   1.0000   1.0000   1.0000
     1.0000   1.0000   1.0000   1.0000   1.0000   1.0000   1.0000   1.0000
     1.0000   1.0000   1.0000   1.0000   1.0000   1.0000   1.0000   1.0000
     1.0000   1.0000   1.0000   1.0000   1.0000   1.0000   1.0000   1.0000
     1.0000   1.0000   1.0000   0.0000   0.0000   0.0000   0.0000   0.0000
     0.0000   0.0000   0.0000   0.0000   0.0000   0.0000   0.0000   0.0000
     0.0000   0.0000   0.0000   0.0000   0.0000   0.0000   0.0000   0.0000
     0.0000   0.0000   0.0000   0.0000   0.0000   0.0000   0.0000   0.0000

          k = 0.0000 0.3849 0.1351 ( 10424 PWs)   bands (ev):

   -79.4746 -79.2927 -79.2403 -74.1959 -74.0774 -74.0603 -45.4755 -45.4112
   -45.4112 -45.2829 -45.2828 -45.2405 -45.2404 -45.1679 -45.1679 -40.3333
   -40.2807 -40.2807 -40.2142 -40.2113 -40.1672 -40.1671 -40.1486 -40.1486
   -10.5718 -10.5586 -10.5509 -10.5402 -10.5355 -10.5274 -10.5015 -10.4967
   -10.4929 -10.4894 -10.4785 -10.4750 -10.4667 -10.4660 -10.4385 -10.4321
   -10.4190 -10.4163 -10.4150 -10.4109 -10.4080 -10.4005 -10.3968 -10.3925
   -10.3894 -10.3840 -10.3711 -10.3657 -10.3604 -10.3541  -6.8932  -6.6929
    -6.3710  -6.0456  -6.0121  -5.7268  -5.6615  -5.5902  -5.5239  -5.4432
    -5.4163  -5.3707  -5.3152  -5.2886  -5.0939  -5.0637  -4.9021  -4.8437
     1.5751   1.7478   1.8140   2.2100   2.3585   2.6332   4.1874   4.2449
     4.4679   4.5066   4.6539   4.7613   4.8554   4.8865   4.9451   5.0538
     5.1044   5.2205   5.2898   5.3735   5.5925   5.9760   6.3769   6.6304
     6.7436   6.9587   7.0314   7.1266   7.2306   7.3022   7.3617   7.4760
     7.5430   7.6716   7.8075   7.9233   8.0800   8.1052   8.2521   8.3912
     8.4784   8.5643   8.7386   8.8032   8.8582   8.9287   8.9684   9.1205
     9.1701   9.2676   9.3384   9.5216   9.5772   9.6405   9.7146   9.7858
     9.8513   9.9332   9.9875  10.0290  10.0449  10.1096  10.2815  10.3482
    10.5099  10.6676  10.8433  10.9373  11.0953  11.2175  11.3710  11.4894
    11.5423  11.6920  11.9309  13.7000  13.7856  13.8256  13.9480  14.0138
    14.0866  14.1118  14.1632  14.2140  14.4204  14.5137  14.5951  14.9130
    15.0344  15.3531  15.5562  15.7714  15.8853  15.9371  16.0704  16.4299
    16.6760  16.6856  16.7520  17.1359  17.2081  17.3786  17.4565  17.6055

     occupation numbers 
     1.0000   1.0000   1.0000   1.0000   1.0000   1.0000   1.0000   1.0000
     1.0000   1.0000   1.0000   1.0000   1.0000   1.0000   1.0000   1.0000
     1.0000   1.0000   1.0000   1.0000   1.0000   1.0000   1.0000   1.0000
     1.0000   1.0000   1.0000   1.0000   1.0000   1.0000   1.0000   1.0000
     1.0000   1.0000   1.0000   1.0000   1.0000   1.0000   1.0000   1.0000
     1.0000   1.0000   1.0000   1.0000   1.0000   1.0000   1.0000   1.0000
     1.0000   1.0000   1.0000   1.0000   1.0000   1.0000   1.0000   1.0000
     1.0000   1.0000   1.0000   1.0000   1.0000   1.0000   1.0000   1.0000
     1.0000   1.0000   1.0000   1.0000   1.0000   1.0000   1.0000   1.0000
     1.0000   1.0000   1.0000   1.0000   1.0000   1.0000   1.0000   1.0000
     1.0000   1.0000   1.0000   1.0000   1.0000   1.0000   1.0000   1.0000
     1.0000   1.0000   1.0000   1.0000   1.0000   1.0000   1.0000   1.0000
     1.0000   1.0000   1.0000   1.0000   1.0000   1.0000   1.0000   1.0000
     1.0000   1.0000   1.0000   1.0000   1.0000   1.0000   1.0000   1.0000
     1.0000   1.0000   1.0000   1.0000   1.0000   1.0000   1.0000   1.0000
     1.0000   1.0000   1.0000   1.0000   1.0000   1.0000   1.0000   1.0000
     1.0000   1.0000   1.0000   1.0000   1.0000   1.0000   1.0000   1.0000
     1.0000   1.0000   1.0000   1.0000   1.0000   1.0000   1.0000   1.0000
     1.0000   1.0000   1.0000   0.0000   0.0000   0.0000   0.0000   0.0000
     0.0000   0.0000   0.0000   0.0000   0.0000   0.0000   0.0000   0.0000
     0.0000   0.0000   0.0000   0.0000   0.0000   0.0000   0.0000   0.0000
     0.0000   0.0000   0.0000   0.0000   0.0000   0.0000   0.0000   0.0000

          k = 0.0000 0.3849 0.2702 ( 10424 PWs)   bands (ev):

   -79.4746 -79.2927 -79.2403 -74.1959 -74.0774 -74.0603 -45.4755 -45.4112
   -45.4112 -45.2829 -45.2828 -45.2405 -45.2404 -45.1679 -45.1679 -40.3333
   -40.2807 -40.2807 -40.2142 -40.2113 -40.1672 -40.1671 -40.1486 -40.1486
   -10.5740 -10.5546 -10.5506 -10.5408 -10.5354 -10.5273 -10.5082 -10.4960
   -10.4892 -10.4885 -10.4800 -10.4741 -10.4685 -10.4636 -10.4380 -10.4319
   -10.4215 -10.4165 -10.4136 -10.4096 -10.4062 -10.4017 -10.3993 -10.3915
   -10.3891 -10.3841 -10.3708 -10.3660 -10.3624 -10.3524  -6.8878  -6.7119
    -6.2838  -6.2045  -5.9361  -5.6870  -5.6534  -5.6018  -5.5222  -5.4586
    -5.4344  -5.3997  -5.2980  -5.2754  -5.0898  -5.0631  -4.9036  -4.8435
     1.5564   1.7357   1.9348   2.0384   2.4781   2.5963   4.1871   4.2457
     4.4699   4.5075   4.6549   4.7577   4.8547   4.8866   4.9312   5.0561
     5.1122   5.2182   5.2909   5.3821   5.5901   5.9696   6.4090   6.5955
     6.7839   6.8657   6.9947   7.1380   7.2592   7.3373   7.3731   7.5268
     7.5909   7.6775   7.7463   7.9428   8.0126   8.0751   8.2481   8.4467
     8.5229   8.5714   8.7138   8.7212   8.8448   8.9521   9.0565   9.1192
     9.1577   9.2185   9.3046   9.5373   9.6006   9.6664   9.7072   9.7902
     9.8591   9.8908   9.9868  10.0208  10.0916  10.2058  10.2531  10.3311
    10.4511  10.6069  10.8615  10.9094  11.1310  11.2593  11.3636  11.4887
    11.5398  11.6777  11.9263  13.7007  13.7843  13.8244  13.9459  14.0148
    14.0915  14.1184  14.1719  14.2153  14.4206  14.5172  14.6066  14.8990
    15.0796  15.4295  15.5518  15.6620  15.8233  15.9347  16.2038  16.3474
    16.5322  16.6471  17.0712  17.1184  17.1878  17.2508  17.2939  17.5509

     occupation numbers 
     1.0000   1.0000   1.0000   1.0000   1.0000   1.0000   1.0000   1.0000
     1.0000   1.0000   1.0000   1.0000   1.0000   1.0000   1.0000   1.0000
     1.0000   1.0000   1.0000   1.0000   1.0000   1.0000   1.0000   1.0000
     1.0000   1.0000   1.0000   1.0000   1.0000   1.0000   1.0000   1.0000
     1.0000   1.0000   1.0000   1.0000   1.0000   1.0000   1.0000   1.0000
     1.0000   1.0000   1.0000   1.0000   1.0000   1.0000   1.0000   1.0000
     1.0000   1.0000   1.0000   1.0000   1.0000   1.0000   1.0000   1.0000
     1.0000   1.0000   1.0000   1.0000   1.0000   1.0000   1.0000   1.0000
     1.0000   1.0000   1.0000   1.0000   1.0000   1.0000   1.0000   1.0000
     1.0000   1.0000   1.0000   1.0000   1.0000   1.0000   1.0000   1.0000
     1.0000   1.0000   1.0000   1.0000   1.0000   1.0000   1.0000   1.0000
     1.0000   1.0000   1.0000   1.0000   1.0000   1.0000   1.0000   1.0000
     1.0000   1.0000   1.0000   1.0000   1.0000   1.0000   1.0000   1.0000
     1.0000   1.0000   1.0000   1.0000   1.0000   1.0000   1.0000   1.0000
     1.0000   1.0000   1.0000   1.0000   1.0000   1.0000   1.0000   1.0000
     1.0000   1.0000   1.0000   1.0000   1.0000   1.0000   1.0000   1.0000
     1.0000   1.0000   1.0000   1.0000   1.0000   1.0000   1.0000   1.0000
     1.0000   1.0000   1.0000   1.0000   1.0000   1.0000   1.0000   1.0000
     1.0000   1.0000   1.0000   0.0000   0.0000   0.0000   0.0000   0.0000
     0.0000   0.0000   0.0000   0.0000   0.0000   0.0000   0.0000   0.0000
     0.0000   0.0000   0.0000   0.0000   0.0000   0.0000   0.0000   0.0000
     0.0000   0.0000   0.0000   0.0000   0.0000   0.0000   0.0000   0.0000

          k = 0.0000 0.3849 0.4053 ( 10414 PWs)   bands (ev):

   -79.4746 -79.2927 -79.2403 -74.1959 -74.0774 -74.0603 -45.4755 -45.4112
   -45.4112 -45.2829 -45.2828 -45.2405 -45.2404 -45.1679 -45.1679 -40.3333
   -40.2807 -40.2807 -40.2142 -40.2113 -40.1672 -40.1671 -40.1486 -40.1486
   -10.5708 -10.5602 -10.5497 -10.5419 -10.5350 -10.5270 -10.5036 -10.4969
   -10.4898 -10.4875 -10.4761 -10.4748 -10.4692 -10.4684 -10.4382 -10.4318
   -10.4210 -10.4177 -10.4121 -10.4108 -10.4064 -10.4021 -10.3973 -10.3914
   -10.3897 -10.3840 -10.3708 -10.3661 -10.3602 -10.3543  -6.9139  -6.6014
    -6.4732  -6.1096  -5.8770  -5.7390  -5.6507  -5.5841  -5.5278  -5.4736
    -5.4331  -5.4053  -5.3021  -5.2690  -5.0889  -5.0589  -4.9034  -4.8436
     1.5704   1.7062   1.8957   2.1409   2.4071   2.6185   4.1872   4.2442
     4.4663   4.5074   4.6569   4.7599   4.8543   4.8866   4.9437   5.0542
     5.1054   5.2141   5.2895   5.3778   5.5919   5.9582   6.4973   6.5724
     6.6671   6.9102   7.0513   7.1333   7.2700   7.3123   7.3984   7.4449
     7.5919   7.7256   7.8119   7.9504   8.0009   8.1285   8.2406   8.3425
     8.4673   8.5819   8.6518   8.7659   8.8529   8.8867   8.9666   9.1098
     9.1897   9.2812   9.4509   9.5096   9.6333   9.7084   9.7392   9.7936
     9.8391   9.8872   9.9475   9.9936  10.0717  10.1392  10.2479  10.3306
    10.4947  10.6903  10.8635  10.9458  11.1064  11.1861  11.3791  11.4555
    11.5106  11.7220  11.9330  13.7007  13.7889  13.8265  13.9448  14.0135
    14.0861  14.1148  14.1716  14.2138  14.4212  14.5187  14.5837  14.9201
    15.0754  15.3093  15.5342  15.7676  15.8999  16.0567  16.1687  16.3222
    16.5189  16.5470  16.8190  17.2176  17.3098  17.3307  17.3836  17.6081

     occupation numbers 
     1.0000   1.0000   1.0000   1.0000   1.0000   1.0000   1.0000   1.0000
     1.0000   1.0000   1.0000   1.0000   1.0000   1.0000   1.0000   1.0000
     1.0000   1.0000   1.0000   1.0000   1.0000   1.0000   1.0000   1.0000
     1.0000   1.0000   1.0000   1.0000   1.0000   1.0000   1.0000   1.0000
     1.0000   1.0000   1.0000   1.0000   1.0000   1.0000   1.0000   1.0000
     1.0000   1.0000   1.0000   1.0000   1.0000   1.0000   1.0000   1.0000
     1.0000   1.0000   1.0000   1.0000   1.0000   1.0000   1.0000   1.0000
     1.0000   1.0000   1.0000   1.0000   1.0000   1.0000   1.0000   1.0000
     1.0000   1.0000   1.0000   1.0000   1.0000   1.0000   1.0000   1.0000
     1.0000   1.0000   1.0000   1.0000   1.0000   1.0000   1.0000   1.0000
     1.0000   1.0000   1.0000   1.0000   1.0000   1.0000   1.0000   1.0000
     1.0000   1.0000   1.0000   1.0000   1.0000   1.0000   1.0000   1.0000
     1.0000   1.0000   1.0000   1.0000   1.0000   1.0000   1.0000   1.0000
     1.0000   1.0000   1.0000   1.0000   1.0000   1.0000   1.0000   1.0000
     1.0000   1.0000   1.0000   1.0000   1.0000   1.0000   1.0000   1.0000
     1.0000   1.0000   1.0000   1.0000   1.0000   1.0000   1.0000   1.0000
     1.0000   1.0000   1.0000   1.0000   1.0000   1.0000   1.0000   1.0000
     1.0000   1.0000   1.0000   1.0000   1.0000   1.0000   1.0000   1.0000
     1.0000   1.0000   1.0000   0.0000   0.0000   0.0000   0.0000   0.0000
     0.0000   0.0000   0.0000   0.0000   0.0000   0.0000   0.0000   0.0000
     0.0000   0.0000   0.0000   0.0000   0.0000   0.0000   0.0000   0.0000
     0.0000   0.0000   0.0000   0.0000   0.0000   0.0000   0.0000   0.0000

          k = 0.3333 0.5774 0.0000 ( 10428 PWs)   bands (ev):

   -79.4746 -79.2927 -79.2403 -74.1959 -74.0774 -74.0603 -45.4755 -45.4112
   -45.4112 -45.2829 -45.2828 -45.2405 -45.2405 -45.1679 -45.1679 -40.3333
   -40.2807 -40.2807 -40.2142 -40.2113 -40.1672 -40.1672 -40.1486 -40.1486
   -10.5523 -10.5519 -10.5450 -10.5427 -10.5415 -10.5287 -10.4973 -10.4898
   -10.4890 -10.4824 -10.4821 -10.4789 -10.4640 -10.4577 -10.4366 -10.4283
   -10.4264 -10.4172 -10.4090 -10.4086 -10.4054 -10.4048 -10.4013 -10.3970
   -10.3899 -10.3827 -10.3746 -10.3693 -10.3690 -10.3641  -6.3861  -6.3684
    -6.3635  -6.2537  -6.0700  -6.0626  -5.6737  -5.6714  -5.6530  -5.4456
    -5.4085  -5.3855  -5.3772  -5.3382  -5.2341  -4.9996  -4.9103  -4.8829
     1.7828   1.8639   1.9097   2.0096   2.0114   2.1439   4.2301   4.3074
     4.4376   4.6083   4.7161   4.7778   4.9105   4.9504   5.0614   5.0661
     5.1558   5.2296   5.2730   5.3345   5.3583   6.5394   6.6271   6.7252
     6.8851   6.9599   7.0568   7.3311   7.3346   7.3738   7.6709   7.6825
     7.7261   7.8773   7.9676   8.0062   8.1312   8.1416   8.2095   8.3828
     8.4615   8.4932   8.6757   8.7437   8.7762   8.8859   8.9333   9.0360
     9.1495   9.2189   9.2849   9.4197   9.4437   9.4997   9.7971   9.8534
     9.9201  10.0578  10.0778  10.0838  10.1585  10.1766  10.1979  10.4384
    10.4448  10.6298  10.9146  11.0127  11.0485  11.0852  11.3288  11.3686
    11.3735  11.5716  11.6276  13.6932  13.7583  13.8651  13.9713  14.0679
    14.1440  14.1758  14.2056  14.2393  14.4272  14.4714  14.5769  14.9491
    15.0261  15.0287  15.4887  15.5430  15.5967  15.8182  15.8444  15.8549
    16.5053  16.6351  16.6988  16.8446  16.9082  16.9152  17.3287  17.3595

     occupation numbers 
     1.0000   1.0000   1.0000   1.0000   1.0000   1.0000   1.0000   1.0000
     1.0000   1.0000   1.0000   1.0000   1.0000   1.0000   1.0000   1.0000
     1.0000   1.0000   1.0000   1.0000   1.0000   1.0000   1.0000   1.0000
     1.0000   1.0000   1.0000   1.0000   1.0000   1.0000   1.0000   1.0000
     1.0000   1.0000   1.0000   1.0000   1.0000   1.0000   1.0000   1.0000
     1.0000   1.0000   1.0000   1.0000   1.0000   1.0000   1.0000   1.0000
     1.0000   1.0000   1.0000   1.0000   1.0000   1.0000   1.0000   1.0000
     1.0000   1.0000   1.0000   1.0000   1.0000   1.0000   1.0000   1.0000
     1.0000   1.0000   1.0000   1.0000   1.0000   1.0000   1.0000   1.0000
     1.0000   1.0000   1.0000   1.0000   1.0000   1.0000   1.0000   1.0000
     1.0000   1.0000   1.0000   1.0000   1.0000   1.0000   1.0000   1.0000
     1.0000   1.0000   1.0000   1.0000   1.0000   1.0000   1.0000   1.0000
     1.0000   1.0000   1.0000   1.0000   1.0000   1.0000   1.0000   1.0000
     1.0000   1.0000   1.0000   1.0000   1.0000   1.0000   1.0000   1.0000
     1.0000   1.0000   1.0000   1.0000   1.0000   1.0000   1.0000   1.0000
     1.0000   1.0000   1.0000   1.0000   1.0000   1.0000   1.0000   1.0000
     1.0000   1.0000   1.0000   1.0000   1.0000   1.0000   1.0000   1.0000
     1.0000   1.0000   1.0000   1.0000   1.0000   1.0000   1.0000   1.0000
     1.0000   1.0000   1.0000   0.0000   0.0000   0.0000   0.0000   0.0000
     0.0000   0.0000   0.0000   0.0000   0.0000   0.0000   0.0000   0.0000
     0.0000   0.0000   0.0000   0.0000   0.0000   0.0000   0.0000   0.0000
     0.0000   0.0000   0.0000   0.0000   0.0000   0.0000   0.0000   0.0000

          k = 0.3333 0.5774 0.1351 ( 10413 PWs)   bands (ev):

   -79.4746 -79.2927 -79.2403 -74.1959 -74.0774 -74.0603 -45.4755 -45.4112
   -45.4112 -45.2829 -45.2828 -45.2405 -45.2405 -45.1679 -45.1679 -40.3333
   -40.2807 -40.2807 -40.2142 -40.2113 -40.1672 -40.1672 -40.1486 -40.1486
   -10.5519 -10.5513 -10.5457 -10.5419 -10.5415 -10.5309 -10.4933 -10.4894
   -10.4887 -10.4827 -10.4823 -10.4822 -10.4636 -10.4582 -10.4358 -10.4297
   -10.4244 -10.4194 -10.4078 -10.4077 -10.4056 -10.4036 -10.4020 -10.3980
   -10.3892 -10.3832 -10.3744 -10.3694 -10.3688 -10.3643  -6.3839  -6.3622
    -6.3614  -6.2633  -6.0800  -6.0717  -5.6351  -5.6325  -5.6255  -5.5159
    -5.4928  -5.4074  -5.3312  -5.3069  -5.2175  -5.0014  -4.9116  -4.8839
     1.7869   1.8685   1.9274   1.9923   2.0048   2.1380   4.2301   4.3104
     4.4372   4.6124   4.6999   4.7894   4.9070   4.9603   5.0651   5.0794
     5.1551   5.2299   5.2697   5.3280   5.3554   6.5239   6.6979   6.7014
     6.8020   6.9152   7.0741   7.3098   7.3333   7.5430   7.6171   7.6932
     7.7194   7.8610   7.9703   8.0730   8.0770   8.1808   8.1886   8.3724
     8.4847   8.5021   8.6480   8.6587   8.6815   8.8459   8.9238   9.1273
     9.1764   9.2096   9.2967   9.4630   9.5418   9.6343   9.7721   9.8498
     9.8515  10.0319  10.0342  10.0914  10.1177  10.1729  10.2147  10.4116
    10.4189  10.6255  10.8941  11.0155  11.0669  11.1164  11.3273  11.3589
    11.3710  11.5788  11.6411  13.6799  13.7615  13.8629  13.9835  14.0754
    14.1187  14.1694  14.2121  14.2456  14.4295  14.4778  14.5820  15.0166
    15.0409  15.0568  15.4870  15.5136  15.5860  15.7147  15.7292  15.7307
    16.7202  16.7817  16.8264  16.8649  16.9308  16.9432  17.3407  17.3432

     occupation numbers 
     1.0000   1.0000   1.0000   1.0000   1.0000   1.0000   1.0000   1.0000
     1.0000   1.0000   1.0000   1.0000   1.0000   1.0000   1.0000   1.0000
     1.0000   1.0000   1.0000   1.0000   1.0000   1.0000   1.0000   1.0000
     1.0000   1.0000   1.0000   1.0000   1.0000   1.0000   1.0000   1.0000
     1.0000   1.0000   1.0000   1.0000   1.0000   1.0000   1.0000   1.0000
     1.0000   1.0000   1.0000   1.0000   1.0000   1.0000   1.0000   1.0000
     1.0000   1.0000   1.0000   1.0000   1.0000   1.0000   1.0000   1.0000
     1.0000   1.0000   1.0000   1.0000   1.0000   1.0000   1.0000   1.0000
     1.0000   1.0000   1.0000   1.0000   1.0000   1.0000   1.0000   1.0000
     1.0000   1.0000   1.0000   1.0000   1.0000   1.0000   1.0000   1.0000
     1.0000   1.0000   1.0000   1.0000   1.0000   1.0000   1.0000   1.0000
     1.0000   1.0000   1.0000   1.0000   1.0000   1.0000   1.0000   1.0000
     1.0000   1.0000   1.0000   1.0000   1.0000   1.0000   1.0000   1.0000
     1.0000   1.0000   1.0000   1.0000   1.0000   1.0000   1.0000   1.0000
     1.0000   1.0000   1.0000   1.0000   1.0000   1.0000   1.0000   1.0000
     1.0000   1.0000   1.0000   1.0000   1.0000   1.0000   1.0000   1.0000
     1.0000   1.0000   1.0000   1.0000   1.0000   1.0000   1.0000   1.0000
     1.0000   1.0000   1.0000   1.0000   1.0000   1.0000   1.0000   1.0000
     1.0000   1.0000   1.0000   0.0000   0.0000   0.0000   0.0000   0.0000
     0.0000   0.0000   0.0000   0.0000   0.0000   0.0000   0.0000   0.0000
     0.0000   0.0000   0.0000   0.0000   0.0000   0.0000   0.0000   0.0000
     0.0000   0.0000   0.0000   0.0000   0.0000   0.0000   0.0000   0.0000

          k = 0.3333 0.5774 0.2702 ( 10413 PWs)   bands (ev):

   -79.4746 -79.2927 -79.2403 -74.1959 -74.0774 -74.0603 -45.4755 -45.4112
   -45.4112 -45.2829 -45.2828 -45.2405 -45.2405 -45.1679 -45.1679 -40.3333
   -40.2807 -40.2807 -40.2142 -40.2113 -40.1672 -40.1672 -40.1486 -40.1486
   -10.5520 -10.5512 -10.5459 -10.5418 -10.5415 -10.5311 -10.4930 -10.4889
   -10.4888 -10.4831 -10.4824 -10.4822 -10.4634 -10.4583 -10.4361 -10.4293
   -10.4241 -10.4197 -10.4078 -10.4077 -10.4058 -10.4037 -10.4020 -10.3979
   -10.3891 -10.3832 -10.3744 -10.3694 -10.3689 -10.3642  -6.3841  -6.3613
    -6.3608  -6.2646  -6.0788  -6.0741  -5.6366  -5.6309  -5.6140  -5.5180
    -5.5000  -5.4159  -5.3222  -5.3134  -5.2117  -5.0020  -4.9110  -4.8849
     1.7890   1.8685   1.9215   1.9988   2.0021   2.1380   4.2304   4.3114
     4.4374   4.6100   4.7054   4.7874   4.9161   4.9593   5.0611   5.0749
     5.1485   5.2334   5.2713   5.3266   5.3525   6.5388   6.6345   6.6943
     6.9032   6.9574   7.0477   7.2567   7.3076   7.4478   7.6741   7.6760
     7.8039   7.9159   7.9615   8.0085   8.0917   8.1332   8.1941   8.4046
     8.4649   8.5623   8.6688   8.6702   8.7298   8.8357   8.8851   9.0012
     9.1993   9.2462   9.2824   9.4296   9.5715   9.6158   9.7746   9.8466
     9.8473  10.0095  10.0238  10.0992  10.1602  10.2104  10.2108  10.4130
    10.4368  10.6441  10.8654  11.0208  11.0332  11.1233  11.3208  11.3602
    11.3694  11.5828  11.6432  13.6828  13.7662  13.8609  13.9722  14.0725
    14.1393  14.1862  14.2150  14.2413  14.4316  14.4636  14.6019  14.9965
    14.9980  15.0706  15.5085  15.5113  15.5416  15.7090  15.7442  15.7575
    16.7566  16.7629  16.8068  16.8820  16.9150  16.9707  17.3236  17.3705

     occupation numbers 
     1.0000   1.0000   1.0000   1.0000   1.0000   1.0000   1.0000   1.0000
     1.0000   1.0000   1.0000   1.0000   1.0000   1.0000   1.0000   1.0000
     1.0000   1.0000   1.0000   1.0000   1.0000   1.0000   1.0000   1.0000
     1.0000   1.0000   1.0000   1.0000   1.0000   1.0000   1.0000   1.0000
     1.0000   1.0000   1.0000   1.0000   1.0000   1.0000   1.0000   1.0000
     1.0000   1.0000   1.0000   1.0000   1.0000   1.0000   1.0000   1.0000
     1.0000   1.0000   1.0000   1.0000   1.0000   1.0000   1.0000   1.0000
     1.0000   1.0000   1.0000   1.0000   1.0000   1.0000   1.0000   1.0000
     1.0000   1.0000   1.0000   1.0000   1.0000   1.0000   1.0000   1.0000
     1.0000   1.0000   1.0000   1.0000   1.0000   1.0000   1.0000   1.0000
     1.0000   1.0000   1.0000   1.0000   1.0000   1.0000   1.0000   1.0000
     1.0000   1.0000   1.0000   1.0000   1.0000   1.0000   1.0000   1.0000
     1.0000   1.0000   1.0000   1.0000   1.0000   1.0000   1.0000   1.0000
     1.0000   1.0000   1.0000   1.0000   1.0000   1.0000   1.0000   1.0000
     1.0000   1.0000   1.0000   1.0000   1.0000   1.0000   1.0000   1.0000
     1.0000   1.0000   1.0000   1.0000   1.0000   1.0000   1.0000   1.0000
     1.0000   1.0000   1.0000   1.0000   1.0000   1.0000   1.0000   1.0000
     1.0000   1.0000   1.0000   1.0000   1.0000   1.0000   1.0000   1.0000
     1.0000   1.0000   1.0000   0.0000   0.0000   0.0000   0.0000   0.0000
     0.0000   0.0000   0.0000   0.0000   0.0000   0.0000   0.0000   0.0000
     0.0000   0.0000   0.0000   0.0000   0.0000   0.0000   0.0000   0.0000
     0.0000   0.0000   0.0000   0.0000   0.0000   0.0000   0.0000   0.0000

          k = 0.3333 0.5774 0.4053 ( 10428 PWs)   bands (ev):

   -79.4746 -79.2927 -79.2403 -74.1959 -74.0774 -74.0603 -45.4755 -45.4112
   -45.4112 -45.2829 -45.2828 -45.2405 -45.2405 -45.1679 -45.1679 -40.3333
   -40.2807 -40.2807 -40.2142 -40.2113 -40.1672 -40.1672 -40.1486 -40.1486
   -10.5523 -10.5519 -10.5450 -10.5427 -10.5415 -10.5287 -10.4973 -10.4898
   -10.4890 -10.4824 -10.4821 -10.4789 -10.4640 -10.4577 -10.4366 -10.4283
   -10.4264 -10.4172 -10.4090 -10.4086 -10.4054 -10.4048 -10.4013 -10.3970
   -10.3899 -10.3827 -10.3746 -10.3693 -10.3690 -10.3641  -6.3861  -6.3684
    -6.3635  -6.2537  -6.0700  -6.0626  -5.6737  -5.6714  -5.6530  -5.4456
    -5.4085  -5.3855  -5.3772  -5.3382  -5.2341  -4.9996  -4.9103  -4.8829
     1.7828   1.8639   1.9097   2.0096   2.0114   2.1439   4.2301   4.3074
     4.4376   4.6083   4.7161   4.7778   4.9105   4.9504   5.0614   5.0661
     5.1558   5.2296   5.2730   5.3345   5.3583   6.5394   6.6271   6.7252
     6.8851   6.9599   7.0568   7.3311   7.3346   7.3738   7.6709   7.6825
     7.7261   7.8773   7.9676   8.0062   8.1312   8.1416   8.2095   8.3828
     8.4615   8.4932   8.6757   8.7437   8.7762   8.8859   8.9333   9.0360
     9.1495   9.2189   9.2849   9.4197   9.4437   9.4997   9.7971   9.8534
     9.9201  10.0578  10.0778  10.0838  10.1585  10.1766  10.1979  10.4384
    10.4448  10.6298  10.9146  11.0127  11.0485  11.0852  11.3288  11.3686
    11.3735  11.5716  11.6276  13.6932  13.7583  13.8651  13.9713  14.0679
    14.1440  14.1758  14.2056  14.2393  14.4272  14.4714  14.5769  14.9491
    15.0261  15.0287  15.4887  15.5430  15.5967  15.8182  15.8444  15.8549
    16.5053  16.6351  16.6988  16.8446  16.9082  16.9152  17.3287  17.3595

     occupation numbers 
     1.0000   1.0000   1.0000   1.0000   1.0000   1.0000   1.0000   1.0000
     1.0000   1.0000   1.0000   1.0000   1.0000   1.0000   1.0000   1.0000
     1.0000   1.0000   1.0000   1.0000   1.0000   1.0000   1.0000   1.0000
     1.0000   1.0000   1.0000   1.0000   1.0000   1.0000   1.0000   1.0000
     1.0000   1.0000   1.0000   1.0000   1.0000   1.0000   1.0000   1.0000
     1.0000   1.0000   1.0000   1.0000   1.0000   1.0000   1.0000   1.0000
     1.0000   1.0000   1.0000   1.0000   1.0000   1.0000   1.0000   1.0000
     1.0000   1.0000   1.0000   1.0000   1.0000   1.0000   1.0000   1.0000
     1.0000   1.0000   1.0000   1.0000   1.0000   1.0000   1.0000   1.0000
     1.0000   1.0000   1.0000   1.0000   1.0000   1.0000   1.0000   1.0000
     1.0000   1.0000   1.0000   1.0000   1.0000   1.0000   1.0000   1.0000
     1.0000   1.0000   1.0000   1.0000   1.0000   1.0000   1.0000   1.0000
     1.0000   1.0000   1.0000   1.0000   1.0000   1.0000   1.0000   1.0000
     1.0000   1.0000   1.0000   1.0000   1.0000   1.0000   1.0000   1.0000
     1.0000   1.0000   1.0000   1.0000   1.0000   1.0000   1.0000   1.0000
     1.0000   1.0000   1.0000   1.0000   1.0000   1.0000   1.0000   1.0000
     1.0000   1.0000   1.0000   1.0000   1.0000   1.0000   1.0000   1.0000
     1.0000   1.0000   1.0000   1.0000   1.0000   1.0000   1.0000   1.0000
     1.0000   1.0000   1.0000   0.0000   0.0000   0.0000   0.0000   0.0000
     0.0000   0.0000   0.0000   0.0000   0.0000   0.0000   0.0000   0.0000
     0.0000   0.0000   0.0000   0.0000   0.0000   0.0000   0.0000   0.0000
     0.0000   0.0000   0.0000   0.0000   0.0000   0.0000   0.0000   0.0000

 ------ SPIN DOWN ----------


          k = 0.0000 0.0000 0.0000 ( 10443 PWs)   bands (ev):

   -79.4784 -79.2938 -79.2431 -74.1923 -74.0763 -74.0576 -45.4793 -45.4148
   -45.4148 -45.2855 -45.2840 -45.2415 -45.2415 -45.1706 -45.1706 -40.3297
   -40.2772 -40.2772 -40.2131 -40.2087 -40.1661 -40.1661 -40.1461 -40.1460
   -10.5774 -10.5774 -10.5535 -10.5535 -10.5389 -10.5288 -10.5112 -10.5112
   -10.4950 -10.4949 -10.4880 -10.4880 -10.4654 -10.4654 -10.4417 -10.4307
   -10.4182 -10.4182 -10.4078 -10.4078 -10.3988 -10.3988 -10.3940 -10.3870
   -10.3870 -10.3845 -10.3602 -10.3602 -10.3493 -10.3493  -7.2733  -6.8794
    -6.7664  -5.9275  -5.8563  -5.5593  -5.5592  -5.4498  -5.4498  -5.3496
    -5.3495  -5.2911  -5.2256  -5.2255  -4.9909  -4.9909  -4.8348  -4.8347
     1.6470   1.7728   1.8282   2.5205   2.6349   3.4251   4.1682   4.1682
     4.3101   4.3102   4.6561   4.6561   4.8708   4.8709   4.8915   5.0223
     5.0778   5.1374   5.1374   5.4759   5.5232   5.5232   6.1935   6.3380
     6.3380   6.4680   6.7606   6.7606   6.9047   7.0450   7.0450   7.3439
     7.4024   7.4025   7.5144   7.6013   7.8225   7.8226   8.1122   8.1123
     8.3457   8.4387   8.4388   8.4435   8.9375   8.9376   9.1745   9.1746
     9.3818   9.4286   9.4287   9.4601   9.6894   9.6894  10.0640  10.0641
    10.1648  10.1648  10.1692  10.2156  10.2157  10.4499  10.4500  10.6659
    10.6659  10.8149  10.9512  11.1605  11.1819  11.1819  11.2588  11.2875
    11.3447  11.9429  11.9430  13.7382  13.7382  13.8812  13.9385  13.9918
    13.9918  14.0536  14.1757  14.1757  14.3026  14.3026  14.9822  14.9822
    15.6063  15.6397  15.6397  15.8353  15.9108  16.0427  17.2636  17.2637
    17.2911  17.2912  17.3731  17.3731  17.6557  17.7313  17.8066  17.8066

     occupation numbers 
     1.0000   1.0000   1.0000   1.0000   1.0000   1.0000   1.0000   1.0000
     1.0000   1.0000   1.0000   1.0000   1.0000   1.0000   1.0000   1.0000
     1.0000   1.0000   1.0000   1.0000   1.0000   1.0000   1.0000   1.0000
     1.0000   1.0000   1.0000   1.0000   1.0000   1.0000   1.0000   1.0000
     1.0000   1.0000   1.0000   1.0000   1.0000   1.0000   1.0000   1.0000
     1.0000   1.0000   1.0000   1.0000   1.0000   1.0000   1.0000   1.0000
     1.0000   1.0000   1.0000   1.0000   1.0000   1.0000   1.0000   1.0000
     1.0000   1.0000   1.0000   1.0000   1.0000   1.0000   1.0000   1.0000
     1.0000   1.0000   1.0000   1.0000   1.0000   1.0000   1.0000   1.0000
     1.0000   1.0000   1.0000   1.0000   1.0000   1.0000   1.0000   1.0000
     1.0000   1.0000   1.0000   1.0000   1.0000   1.0000   1.0000   1.0000
     1.0000   1.0000   1.0000   1.0000   1.0000   1.0000   1.0000   1.0000
     1.0000   1.0000   1.0000   1.0000   1.0000   1.0000   1.0000   1.0000
     1.0000   1.0000   1.0000   1.0000   1.0000   1.0000   1.0000   1.0000
     1.0000   1.0000   1.0000   1.0000   1.0000   1.0000   1.0000   1.0000
     1.0000   1.0000   1.0000   1.0000   1.0000   1.0000   1.0000   1.0000
     1.0000   1.0000   1.0000   1.0000   1.0000   1.0000   1.0000   1.0000
     1.0000   1.0000   1.0000   1.0000   1.0000   1.0000   1.0000   1.0000
     1.0000   1.0000   1.0000   0.0000   0.0000   0.0000   0.0000   0.0000
     0.0000   0.0000   0.0000   0.0000   0.0000   0.0000   0.0000   0.0000
     0.0000   0.0000   0.0000   0.0000   0.0000   0.0000   0.0000   0.0000
     0.0000   0.0000   0.0000   0.0000   0.0000   0.0000   0.0000   0.0000

          k = 0.0000 0.0000 0.1351 ( 10462 PWs)   bands (ev):

   -79.4784 -79.2938 -79.2431 -74.1923 -74.0763 -74.0576 -45.4793 -45.4148
   -45.4148 -45.2855 -45.2840 -45.2415 -45.2415 -45.1706 -45.1706 -40.3297
   -40.2772 -40.2772 -40.2131 -40.2087 -40.1661 -40.1661 -40.1461 -40.1460
   -10.5743 -10.5742 -10.5599 -10.5598 -10.5389 -10.5290 -10.5063 -10.5057
   -10.4959 -10.4945 -10.4854 -10.4845 -10.4713 -10.4711 -10.4404 -10.4325
   -10.4165 -10.4158 -10.4118 -10.4109 -10.3961 -10.3960 -10.3933 -10.3879
   -10.3876 -10.3849 -10.3586 -10.3585 -10.3506 -10.3506  -7.2413  -7.0327
    -6.5346  -6.2141  -5.6312  -5.5595  -5.5593  -5.4497  -5.4491  -5.3500
    -5.3493  -5.3403  -5.2263  -5.2261  -4.9902  -4.9900  -4.8352  -4.8351
     1.6389   1.7306   1.9659   2.2276   2.9639   3.2940   4.1681   4.1685
     4.3121   4.3126   4.6554   4.6555   4.8629   4.8688   4.8909   5.0106
     5.0738   5.1363   5.1403   5.5185   5.5262   5.5356   5.9988   6.3431
     6.3606   6.7234   6.7274   6.7500   7.0352   7.1162   7.1167   7.1486
     7.3410   7.4057   7.4206   7.6346   7.7842   7.8591   8.0562   8.0802
     8.0821   8.4031   8.4636   8.7892   8.7993   8.8897   9.1585   9.3728
     9.3925   9.4870   9.5248   9.7056   9.7274   9.7316   9.8798   9.8929
     9.9531   9.9925  10.0222  10.3364  10.3395  10.4996  10.5121  10.6559
    10.6735  10.8410  10.9997  11.0739  11.1495  11.1665  11.1807  11.3628
    11.4706  11.9441  11.9524  13.7379  13.7412  13.8542  13.9175  13.9906
    13.9921  14.0665  14.1732  14.1733  14.3007  14.3025  14.9859  14.9880
    15.2699  15.4364  15.6373  15.6381  16.5444  16.6827  17.2607  17.2619
    17.3100  17.3146  17.3185  17.4125  17.4133  17.4160  17.5952  17.6018

     occupation numbers 
     1.0000   1.0000   1.0000   1.0000   1.0000   1.0000   1.0000   1.0000
     1.0000   1.0000   1.0000   1.0000   1.0000   1.0000   1.0000   1.0000
     1.0000   1.0000   1.0000   1.0000   1.0000   1.0000   1.0000   1.0000
     1.0000   1.0000   1.0000   1.0000   1.0000   1.0000   1.0000   1.0000
     1.0000   1.0000   1.0000   1.0000   1.0000   1.0000   1.0000   1.0000
     1.0000   1.0000   1.0000   1.0000   1.0000   1.0000   1.0000   1.0000
     1.0000   1.0000   1.0000   1.0000   1.0000   1.0000   1.0000   1.0000
     1.0000   1.0000   1.0000   1.0000   1.0000   1.0000   1.0000   1.0000
     1.0000   1.0000   1.0000   1.0000   1.0000   1.0000   1.0000   1.0000
     1.0000   1.0000   1.0000   1.0000   1.0000   1.0000   1.0000   1.0000
     1.0000   1.0000   1.0000   1.0000   1.0000   1.0000   1.0000   1.0000
     1.0000   1.0000   1.0000   1.0000   1.0000   1.0000   1.0000   1.0000
     1.0000   1.0000   1.0000   1.0000   1.0000   1.0000   1.0000   1.0000
     1.0000   1.0000   1.0000   1.0000   1.0000   1.0000   1.0000   1.0000
     1.0000   1.0000   1.0000   1.0000   1.0000   1.0000   1.0000   1.0000
     1.0000   1.0000   1.0000   1.0000   1.0000   1.0000   1.0000   1.0000
     1.0000   1.0000   1.0000   1.0000   1.0000   1.0000   1.0000   1.0000
     1.0000   1.0000   1.0000   1.0000   1.0000   1.0000   1.0000   1.0000
     1.0000   1.0000   1.0000   0.0000   0.0000   0.0000   0.0000   0.0000
     0.0000   0.0000   0.0000   0.0000   0.0000   0.0000   0.0000   0.0000
     0.0000   0.0000   0.0000   0.0000   0.0000   0.0000   0.0000   0.0000
     0.0000   0.0000   0.0000   0.0000   0.0000   0.0000   0.0000   0.0000

          k = 0.0000 0.0000 0.2702 ( 10462 PWs)   bands (ev):

   -79.4784 -79.2938 -79.2431 -74.1923 -74.0763 -74.0576 -45.4793 -45.4148
   -45.4148 -45.2855 -45.2840 -45.2415 -45.2415 -45.1706 -45.1706 -40.3297
   -40.2772 -40.2772 -40.2131 -40.2087 -40.1661 -40.1661 -40.1461 -40.1460
   -10.5743 -10.5742 -10.5599 -10.5598 -10.5389 -10.5290 -10.5063 -10.5057
   -10.4959 -10.4945 -10.4854 -10.4845 -10.4713 -10.4711 -10.4404 -10.4325
   -10.4165 -10.4158 -10.4118 -10.4109 -10.3961 -10.3960 -10.3933 -10.3879
   -10.3876 -10.3849 -10.3586 -10.3585 -10.3506 -10.3506  -7.2413  -7.0327
    -6.5346  -6.2141  -5.6312  -5.5595  -5.5593  -5.4497  -5.4491  -5.3500
    -5.3493  -5.3403  -5.2263  -5.2261  -4.9902  -4.9900  -4.8352  -4.8351
     1.6389   1.7306   1.9659   2.2276   2.9639   3.2940   4.1681   4.1685
     4.3121   4.3126   4.6554   4.6555   4.8629   4.8688   4.8909   5.0106
     5.0738   5.1363   5.1403   5.5185   5.5262   5.5356   5.9988   6.3431
     6.3606   6.7234   6.7274   6.7500   7.0352   7.1162   7.1167   7.1486
     7.3410   7.4057   7.4206   7.6346   7.7842   7.8591   8.0562   8.0802
     8.0821   8.4031   8.4636   8.7892   8.7993   8.8897   9.1585   9.3728
     9.3925   9.4870   9.5248   9.7056   9.7274   9.7316   9.8798   9.8929
     9.9531   9.9925  10.0222  10.3364  10.3395  10.4996  10.5121  10.6559
    10.6735  10.8410  10.9997  11.0739  11.1495  11.1665  11.1807  11.3628
    11.4706  11.9441  11.9524  13.7379  13.7412  13.8542  13.9175  13.9906
    13.9921  14.0665  14.1732  14.1733  14.3007  14.3025  14.9859  14.9880
    15.2699  15.4364  15.6373  15.6381  16.5444  16.6827  17.2607  17.2619
    17.3100  17.3146  17.3185  17.4125  17.4133  17.4160  17.5952  17.6018

     occupation numbers 
     1.0000   1.0000   1.0000   1.0000   1.0000   1.0000   1.0000   1.0000
     1.0000   1.0000   1.0000   1.0000   1.0000   1.0000   1.0000   1.0000
     1.0000   1.0000   1.0000   1.0000   1.0000   1.0000   1.0000   1.0000
     1.0000   1.0000   1.0000   1.0000   1.0000   1.0000   1.0000   1.0000
     1.0000   1.0000   1.0000   1.0000   1.0000   1.0000   1.0000   1.0000
     1.0000   1.0000   1.0000   1.0000   1.0000   1.0000   1.0000   1.0000
     1.0000   1.0000   1.0000   1.0000   1.0000   1.0000   1.0000   1.0000
     1.0000   1.0000   1.0000   1.0000   1.0000   1.0000   1.0000   1.0000
     1.0000   1.0000   1.0000   1.0000   1.0000   1.0000   1.0000   1.0000
     1.0000   1.0000   1.0000   1.0000   1.0000   1.0000   1.0000   1.0000
     1.0000   1.0000   1.0000   1.0000   1.0000   1.0000   1.0000   1.0000
     1.0000   1.0000   1.0000   1.0000   1.0000   1.0000   1.0000   1.0000
     1.0000   1.0000   1.0000   1.0000   1.0000   1.0000   1.0000   1.0000
     1.0000   1.0000   1.0000   1.0000   1.0000   1.0000   1.0000   1.0000
     1.0000   1.0000   1.0000   1.0000   1.0000   1.0000   1.0000   1.0000
     1.0000   1.0000   1.0000   1.0000   1.0000   1.0000   1.0000   1.0000
     1.0000   1.0000   1.0000   1.0000   1.0000   1.0000   1.0000   1.0000
     1.0000   1.0000   1.0000   1.0000   1.0000   1.0000   1.0000   1.0000
     1.0000   1.0000   1.0000   0.0000   0.0000   0.0000   0.0000   0.0000
     0.0000   0.0000   0.0000   0.0000   0.0000   0.0000   0.0000   0.0000
     0.0000   0.0000   0.0000   0.0000   0.0000   0.0000   0.0000   0.0000
     0.0000   0.0000   0.0000   0.0000   0.0000   0.0000   0.0000   0.0000

          k = 0.0000 0.0000 0.4053 ( 10443 PWs)   bands (ev):

   -79.4784 -79.2938 -79.2431 -74.1923 -74.0763 -74.0576 -45.4793 -45.4148
   -45.4148 -45.2855 -45.2840 -45.2415 -45.2415 -45.1706 -45.1706 -40.3297
   -40.2772 -40.2772 -40.2131 -40.2087 -40.1661 -40.1661 -40.1461 -40.1460
   -10.5774 -10.5774 -10.5535 -10.5535 -10.5389 -10.5288 -10.5112 -10.5112
   -10.4950 -10.4949 -10.4880 -10.4880 -10.4654 -10.4654 -10.4417 -10.4307
   -10.4182 -10.4182 -10.4078 -10.4078 -10.3988 -10.3988 -10.3940 -10.3870
   -10.3870 -10.3845 -10.3602 -10.3602 -10.3493 -10.3493  -7.2733  -6.8794
    -6.7664  -5.9275  -5.8563  -5.5593  -5.5592  -5.4498  -5.4498  -5.3496
    -5.3495  -5.2911  -5.2256  -5.2255  -4.9909  -4.9909  -4.8348  -4.8347
     1.6470   1.7728   1.8282   2.5205   2.6349   3.4251   4.1682   4.1682
     4.3101   4.3102   4.6561   4.6561   4.8708   4.8709   4.8915   5.0223
     5.0778   5.1374   5.1374   5.4759   5.5232   5.5232   6.1935   6.3380
     6.3380   6.4680   6.7606   6.7606   6.9047   7.0450   7.0450   7.3439
     7.4024   7.4025   7.5144   7.6013   7.8225   7.8226   8.1122   8.1123
     8.3457   8.4387   8.4388   8.4435   8.9375   8.9376   9.1745   9.1746
     9.3818   9.4286   9.4287   9.4601   9.6894   9.6894  10.0640  10.0641
    10.1648  10.1648  10.1692  10.2156  10.2157  10.4499  10.4500  10.6659
    10.6659  10.8149  10.9512  11.1605  11.1819  11.1819  11.2588  11.2875
    11.3447  11.9429  11.9430  13.7382  13.7382  13.8812  13.9385  13.9918
    13.9918  14.0536  14.1757  14.1757  14.3026  14.3026  14.9822  14.9822
    15.6063  15.6397  15.6397  15.8353  15.9108  16.0427  17.2636  17.2637
    17.2911  17.2912  17.3731  17.3731  17.6557  17.7313  17.8066  17.8066

     occupation numbers 
     1.0000   1.0000   1.0000   1.0000   1.0000   1.0000   1.0000   1.0000
     1.0000   1.0000   1.0000   1.0000   1.0000   1.0000   1.0000   1.0000
     1.0000   1.0000   1.0000   1.0000   1.0000   1.0000   1.0000   1.0000
     1.0000   1.0000   1.0000   1.0000   1.0000   1.0000   1.0000   1.0000
     1.0000   1.0000   1.0000   1.0000   1.0000   1.0000   1.0000   1.0000
     1.0000   1.0000   1.0000   1.0000   1.0000   1.0000   1.0000   1.0000
     1.0000   1.0000   1.0000   1.0000   1.0000   1.0000   1.0000   1.0000
     1.0000   1.0000   1.0000   1.0000   1.0000   1.0000   1.0000   1.0000
     1.0000   1.0000   1.0000   1.0000   1.0000   1.0000   1.0000   1.0000
     1.0000   1.0000   1.0000   1.0000   1.0000   1.0000   1.0000   1.0000
     1.0000   1.0000   1.0000   1.0000   1.0000   1.0000   1.0000   1.0000
     1.0000   1.0000   1.0000   1.0000   1.0000   1.0000   1.0000   1.0000
     1.0000   1.0000   1.0000   1.0000   1.0000   1.0000   1.0000   1.0000
     1.0000   1.0000   1.0000   1.0000   1.0000   1.0000   1.0000   1.0000
     1.0000   1.0000   1.0000   1.0000   1.0000   1.0000   1.0000   1.0000
     1.0000   1.0000   1.0000   1.0000   1.0000   1.0000   1.0000   1.0000
     1.0000   1.0000   1.0000   1.0000   1.0000   1.0000   1.0000   1.0000
     1.0000   1.0000   1.0000   1.0000   1.0000   1.0000   1.0000   1.0000
     1.0000   1.0000   1.0000   0.0000   0.0000   0.0000   0.0000   0.0000
     0.0000   0.0000   0.0000   0.0000   0.0000   0.0000   0.0000   0.0000
     0.0000   0.0000   0.0000   0.0000   0.0000   0.0000   0.0000   0.0000
     0.0000   0.0000   0.0000   0.0000   0.0000   0.0000   0.0000   0.0000

          k = 0.0000 0.3849 0.0000 ( 10414 PWs)   bands (ev):

   -79.4784 -79.2938 -79.2431 -74.1923 -74.0763 -74.0576 -45.4793 -45.4148
   -45.4148 -45.2855 -45.2840 -45.2415 -45.2415 -45.1706 -45.1706 -40.3297
   -40.2773 -40.2772 -40.2131 -40.2087 -40.1661 -40.1661 -40.1461 -40.1460
   -10.5716 -10.5596 -10.5506 -10.5411 -10.5360 -10.5261 -10.5040 -10.4976
   -10.4897 -10.4870 -10.4764 -10.4751 -10.4688 -10.4679 -10.4391 -10.4309
   -10.4213 -10.4178 -10.4121 -10.4108 -10.4070 -10.4015 -10.3979 -10.3914
[...]
     1.0000   1.0000   1.0000   1.0000   1.0000   1.0000   1.0000   1.0000
     1.0000   1.0000   1.0000   1.0000   1.0000   1.0000   1.0000   1.0000
     1.0000   1.0000   1.0000   1.0000   1.0000   1.0000   1.0000   1.0000
     1.0000   1.0000   1.0000   1.0000   1.0000   1.0000   1.0000   1.0000
     1.0000   1.0000   1.0000   1.0000   1.0000   1.0000   1.0000   1.0000
     1.0000   1.0000   1.0000   1.0000   1.0000   1.0000   1.0000   1.0000
     1.0000   1.0000   1.0000   1.0000   1.0000   1.0000   1.0000   1.0000
     1.0000   1.0000   1.0000   1.0000   1.0000   1.0000   1.0000   1.0000
     1.0000   1.0000   1.0000   1.0000   1.0000   1.0000   1.0000   1.0000
     1.0000   1.0000   1.0000   1.0000   1.0000   1.0000   1.0000   1.0000
     1.0000   1.0000   1.0000   1.0000   1.0000   1.0000   1.0000   1.0000
     1.0000   1.0000   1.0000   1.0000   1.0000   1.0000   1.0000   1.0000
     1.0000   1.0000   1.0000   1.0000   1.0000   1.0000   1.0000   1.0000
     1.0000   1.0000   1.0000   1.0000   1.0000   1.0000   1.0000   1.0000
     1.0000   1.0000   1.0000   0.0000   0.0000   0.0000   0.0000   0.0000
     0.0000   0.0000   0.0000   0.0000   0.0000   0.0000   0.0000   0.0000
     0.0000   0.0000   0.0000   0.0000   0.0000   0.0000   0.0000   0.0000
     0.0000   0.0000   0.0000   0.0000   0.0000   0.0000   0.0000   0.0000

          k = 0.3333 0.5774 0.1351 ( 10413 PWs)   bands (ev):

   -79.4784 -79.2938 -79.2431 -74.1923 -74.0763 -74.0576 -45.4793 -45.4148
   -45.4148 -45.2855 -45.2840 -45.2415 -45.2415 -45.1706 -45.1706 -40.3297
   -40.2773 -40.2772 -40.2131 -40.2087 -40.1661 -40.1661 -40.1461 -40.1461
   -10.5531 -10.5519 -10.5452 -10.5423 -10.5408 -10.5303 -10.4935 -10.4899
   -10.4898 -10.4823 -10.4819 -10.4812 -10.4637 -10.4579 -10.4370 -10.4285
   -10.4247 -10.4192 -10.4089 -10.4080 -10.4056 -10.4047 -10.4009 -10.3968
   -10.3903 -10.3819 -10.3760 -10.3704 -10.3678 -10.3627  -6.3857  -6.3626
    -6.3613  -6.2649  -6.0776  -6.0728  -5.6370  -5.6324  -5.6145  -5.5180
    -5.5004  -5.4166  -5.3227  -5.3139  -5.2110  -5.0006  -4.9094  -4.8833
     1.7878   1.8666   1.9209   1.9991   2.0031   2.1397   4.2278   4.3092
     4.4359   4.6074   4.7035   4.7856   4.9143   4.9567   5.0591   5.0730
     5.1463   5.2317   5.2699   5.3248   5.3506   6.5385   6.6346   6.6956
     6.9041   6.9568   7.0483   7.2575   7.3076   7.4482   7.6740   7.6755
     7.8043   7.9154   7.9611   8.0083   8.0922   8.1333   8.1941   8.4046
     8.4654   8.5618   8.6686   8.6702   8.7307   8.8362   8.8860   9.0008
     9.1993   9.2469   9.2830   9.4292   9.5713   9.6161   9.7744   9.8459
     9.8476  10.0098  10.0242  10.0997  10.1598  10.2106  10.2108  10.4126
    10.4361  10.6435  10.8654  11.0219  11.0350  11.1228  11.3196  11.3600
    11.3676  11.5813  11.6423  13.6850  13.7685  13.8635  13.9743  14.0746
    14.1408  14.1876  14.2166  14.2430  14.4330  14.4653  14.6028  14.9978
    14.9991  15.0716  15.5088  15.5111  15.5415  15.7096  15.7447  15.7580
    16.7567  16.7629  16.8063  16.8821  16.9148  16.9711  17.3239  17.3702

     occupation numbers 
     1.0000   1.0000   1.0000   1.0000   1.0000   1.0000   1.0000   1.0000
     1.0000   1.0000   1.0000   1.0000   1.0000   1.0000   1.0000   1.0000
     1.0000   1.0000   1.0000   1.0000   1.0000   1.0000   1.0000   1.0000
     1.0000   1.0000   1.0000   1.0000   1.0000   1.0000   1.0000   1.0000
     1.0000   1.0000   1.0000   1.0000   1.0000   1.0000   1.0000   1.0000
     1.0000   1.0000   1.0000   1.0000   1.0000   1.0000   1.0000   1.0000
     1.0000   1.0000   1.0000   1.0000   1.0000   1.0000   1.0000   1.0000
     1.0000   1.0000   1.0000   1.0000   1.0000   1.0000   1.0000   1.0000
     1.0000   1.0000   1.0000   1.0000   1.0000   1.0000   1.0000   1.0000
     1.0000   1.0000   1.0000   1.0000   1.0000   1.0000   1.0000   1.0000
     1.0000   1.0000   1.0000   1.0000   1.0000   1.0000   1.0000   1.0000
     1.0000   1.0000   1.0000   1.0000   1.0000   1.0000   1.0000   1.0000
     1.0000   1.0000   1.0000   1.0000   1.0000   1.0000   1.0000   1.0000
     1.0000   1.0000   1.0000   1.0000   1.0000   1.0000   1.0000   1.0000
     1.0000   1.0000   1.0000   1.0000   1.0000   1.0000   1.0000   1.0000
     1.0000   1.0000   1.0000   1.0000   1.0000   1.0000   1.0000   1.0000
     1.0000   1.0000   1.0000   1.0000   1.0000   1.0000   1.0000   1.0000
     1.0000   1.0000   1.0000   1.0000   1.0000   1.0000   1.0000   1.0000
     1.0000   1.0000   1.0000   0.0000   0.0000   0.0000   0.0000   0.0000
     0.0000   0.0000   0.0000   0.0000   0.0000   0.0000   0.0000   0.0000
     0.0000   0.0000   0.0000   0.0000   0.0000   0.0000   0.0000   0.0000
     0.0000   0.0000   0.0000   0.0000   0.0000   0.0000   0.0000   0.0000

          k = 0.3333 0.5774 0.2702 ( 10413 PWs)   bands (ev):

   -79.4784 -79.2938 -79.2431 -74.1923 -74.0763 -74.0576 -45.4793 -45.4148
   -45.4148 -45.2855 -45.2840 -45.2415 -45.2415 -45.1706 -45.1706 -40.3297
   -40.2773 -40.2772 -40.2131 -40.2087 -40.1661 -40.1661 -40.1461 -40.1461
   -10.5530 -10.5520 -10.5451 -10.5424 -10.5409 -10.5302 -10.4938 -10.4902
   -10.4898 -10.4819 -10.4817 -10.4812 -10.4639 -10.4577 -10.4367 -10.4289
   -10.4248 -10.4192 -10.4089 -10.4082 -10.4054 -10.4045 -10.4008 -10.3970
   -10.3905 -10.3818 -10.3760 -10.3703 -10.3678 -10.3628  -6.3854  -6.3631
    -6.3622  -6.2636  -6.0788  -6.0704  -5.6365  -5.6330  -5.6259  -5.5163
    -5.4930  -5.4081  -5.3317  -5.3075  -5.2167  -5.0001  -4.9101  -4.8823
     1.7857   1.8667   1.9268   1.9927   2.0057   2.1397   4.2275   4.3081
     4.4357   4.6098   4.6980   4.7876   4.9051   4.9578   5.0631   5.0775
     5.1528   5.2282   5.2683   5.3262   5.3534   6.5236   6.6974   6.7025
     6.8034   6.9152   7.0745   7.3099   7.3337   7.5434   7.6171   7.6929
     7.7191   7.8609   7.9703   8.0734   8.0770   8.1805   8.1891   8.3722
     8.4851   8.5021   8.6481   8.6588   8.6813   8.8464   8.9249   9.1274
     9.1764   9.2102   9.2972   9.4625   9.5421   9.6343   9.7719   9.8492
     9.8519  10.0317  10.0344  10.0921  10.1177  10.1730  10.2148  10.4110
    10.4185  10.6249  10.8940  11.0165  11.0686  11.1161  11.3262  11.3587
    11.3693  11.5773  11.6401  13.6821  13.7637  13.8655  13.9857  14.0775
    14.1202  14.1708  14.2138  14.2473  14.4310  14.4794  14.5829  15.0181
    15.0418  15.0582  15.4870  15.5129  15.5859  15.7154  15.7299  15.7312
    16.7200  16.7819  16.8260  16.8650  16.9309  16.9433  17.3407  17.3426

     occupation numbers 
     1.0000   1.0000   1.0000   1.0000   1.0000   1.0000   1.0000   1.0000
     1.0000   1.0000   1.0000   1.0000   1.0000   1.0000   1.0000   1.0000
     1.0000   1.0000   1.0000   1.0000   1.0000   1.0000   1.0000   1.0000
     1.0000   1.0000   1.0000   1.0000   1.0000   1.0000   1.0000   1.0000
     1.0000   1.0000   1.0000   1.0000   1.0000   1.0000   1.0000   1.0000
     1.0000   1.0000   1.0000   1.0000   1.0000   1.0000   1.0000   1.0000
     1.0000   1.0000   1.0000   1.0000   1.0000   1.0000   1.0000   1.0000
     1.0000   1.0000   1.0000   1.0000   1.0000   1.0000   1.0000   1.0000
     1.0000   1.0000   1.0000   1.0000   1.0000   1.0000   1.0000   1.0000
     1.0000   1.0000   1.0000   1.0000   1.0000   1.0000   1.0000   1.0000
     1.0000   1.0000   1.0000   1.0000   1.0000   1.0000   1.0000   1.0000
     1.0000   1.0000   1.0000   1.0000   1.0000   1.0000   1.0000   1.0000
     1.0000   1.0000   1.0000   1.0000   1.0000   1.0000   1.0000   1.0000
     1.0000   1.0000   1.0000   1.0000   1.0000   1.0000   1.0000   1.0000
     1.0000   1.0000   1.0000   1.0000   1.0000   1.0000   1.0000   1.0000
     1.0000   1.0000   1.0000   1.0000   1.0000   1.0000   1.0000   1.0000
     1.0000   1.0000   1.0000   1.0000   1.0000   1.0000   1.0000   1.0000
     1.0000   1.0000   1.0000   1.0000   1.0000   1.0000   1.0000   1.0000
     1.0000   1.0000   1.0000   0.0000   0.0000   0.0000   0.0000   0.0000
     0.0000   0.0000   0.0000   0.0000   0.0000   0.0000   0.0000   0.0000
     0.0000   0.0000   0.0000   0.0000   0.0000   0.0000   0.0000   0.0000
     0.0000   0.0000   0.0000   0.0000   0.0000   0.0000   0.0000   0.0000

          k = 0.3333 0.5774 0.4053 ( 10428 PWs)   bands (ev):

   -79.4784 -79.2938 -79.2431 -74.1923 -74.0763 -74.0576 -45.4793 -45.4148
   -45.4148 -45.2855 -45.2840 -45.2415 -45.2415 -45.1706 -45.1706 -40.3297
   -40.2773 -40.2772 -40.2131 -40.2087 -40.1661 -40.1661 -40.1461 -40.1461
   -10.5533 -10.5525 -10.5445 -10.5434 -10.5406 -10.5281 -10.4976 -10.4906
   -10.4900 -10.4817 -10.4811 -10.4786 -10.4642 -10.4574 -10.4374 -10.4276
   -10.4267 -10.4170 -10.4099 -10.4088 -10.4061 -10.4046 -10.4004 -10.3962
   -10.3910 -10.3815 -10.3761 -10.3704 -10.3678 -10.3626  -6.3876  -6.3684
    -6.3652  -6.2540  -6.0688  -6.0614  -5.6740  -5.6718  -5.6543  -5.4461
    -5.4089  -5.3857  -5.3784  -5.3387  -5.2330  -4.9982  -4.9087  -4.8813
     1.7816   1.8622   1.9093   2.0105   2.0116   2.1456   4.2275   4.3052
     4.4360   4.6057   4.7141   4.7760   4.9087   4.9480   5.0593   5.0640
     5.1535   5.2279   5.2715   5.3327   5.3564   6.5392   6.6273   6.7268
     6.8843   6.9607   7.0573   7.3316   7.3350   7.3741   7.6709   7.6819
     7.7254   7.8777   7.9681   8.0060   8.1312   8.1415   8.2090   8.3839
     8.4618   8.4929   8.6755   8.7437   8.7763   8.8861   8.9338   9.0362
     9.1502   9.2193   9.2849   9.4200   9.4436   9.5001   9.7965   9.8529
     9.9205  10.0579  10.0776  10.0840  10.1589  10.1768  10.1984  10.4379
    10.4441  10.6292  10.9146  11.0137  11.0501  11.0847  11.3276  11.3684
    11.3719  11.5700  11.6266  13.6954  13.7606  13.8677  13.9734  14.0700
    14.1456  14.1772  14.2073  14.2410  14.4286  14.4731  14.5778  14.9503
    15.0273  15.0295  15.4886  15.5439  15.5972  15.8181  15.8445  15.8552
    16.5054  16.6351  16.6986  16.8448  16.9080  16.9150  17.3285  17.3598

     occupation numbers 
     1.0000   1.0000   1.0000   1.0000   1.0000   1.0000   1.0000   1.0000
     1.0000   1.0000   1.0000   1.0000   1.0000   1.0000   1.0000   1.0000
     1.0000   1.0000   1.0000   1.0000   1.0000   1.0000   1.0000   1.0000
     1.0000   1.0000   1.0000   1.0000   1.0000   1.0000   1.0000   1.0000
     1.0000   1.0000   1.0000   1.0000   1.0000   1.0000   1.0000   1.0000
     1.0000   1.0000   1.0000   1.0000   1.0000   1.0000   1.0000   1.0000
     1.0000   1.0000   1.0000   1.0000   1.0000   1.0000   1.0000   1.0000
     1.0000   1.0000   1.0000   1.0000   1.0000   1.0000   1.0000   1.0000
     1.0000   1.0000   1.0000   1.0000   1.0000   1.0000   1.0000   1.0000
     1.0000   1.0000   1.0000   1.0000   1.0000   1.0000   1.0000   1.0000
     1.0000   1.0000   1.0000   1.0000   1.0000   1.0000   1.0000   1.0000
     1.0000   1.0000   1.0000   1.0000   1.0000   1.0000   1.0000   1.0000
     1.0000   1.0000   1.0000   1.0000   1.0000   1.0000   1.0000   1.0000
     1.0000   1.0000   1.0000   1.0000   1.0000   1.0000   1.0000   1.0000
     1.0000   1.0000   1.0000   1.0000   1.0000   1.0000   1.0000   1.0000
     1.0000   1.0000   1.0000   1.0000   1.0000   1.0000   1.0000   1.0000
     1.0000   1.0000   1.0000   1.0000   1.0000   1.0000   1.0000   1.0000
     1.0000   1.0000   1.0000   1.0000   1.0000   1.0000   1.0000   1.0000
     1.0000   1.0000   1.0000   0.0000   0.0000   0.0000   0.0000   0.0000
     0.0000   0.0000   0.0000   0.0000   0.0000   0.0000   0.0000   0.0000
     0.0000   0.0000   0.0000   0.0000   0.0000   0.0000   0.0000   0.0000
     0.0000   0.0000   0.0000   0.0000   0.0000   0.0000   0.0000   0.0000

     highest occupied, lowest unoccupied level (ev):    11.9538   13.6799



               ==================================================
                            POLARIZATION CALCULATION
                         !!! NOT THOROUGHLY TESTED !!!
               --------------------------------------------------


                     K-POINTS STRINGS USED IN CALCULATIONS
                     ~~~~~~~~~~~~~~~~~~~~~~~~~~~~~~~~~~~~~

       G-vector along string (2 pi/a):  0.00000  0.00000  0.40528
       Modulus of the vector (1/bohr):  0.24361
       Number of k-points per string:   4
       Number of different strings  :   3


                               IONIC POLARIZATION
                               ~~~~~~~~~~~~~~~~~~

  ============================================================================
    Ion    Species    Charge              Position                Phase
  ----------------------------------------------------------------------------
     1        Fe      16.000       0.0000  0.0000  1.9173     0.43289 (mod 2)
     2        Fe      16.000      -0.0000  0.5774  2.3408    -0.82083 (mod 2)
     3        Fe      16.000       0.5000  0.2887  1.4988    -0.28123 (mod 2)
     4        Fe      16.000       0.5000  0.2887  0.2650    -0.28140 (mod 2)
     5        Fe      16.000       0.0000  0.0000  0.6836     0.43307 (mod 2)
     6        Fe      16.000      -0.0000  0.5774  1.1072    -0.82045 (mod 2)
     7        Bi      15.000       0.5000  0.2887  2.0705    -0.41324 (mod 1)
     8        Bi      15.000      -0.0000  0.5774  1.6684     0.14239 (mod 1)
     9        Bi      15.000      -0.0000  0.5774  0.4346    -0.35799 (mod 1)
    10        Bi      15.000       0.0000  0.0000  0.0112     0.06817 (mod 1)
    11        Bi      15.000       0.0000  0.0000  1.2449    -0.43177 (mod 1)
    12        Bi      15.000       0.5000  0.2887  0.8367     0.08646 (mod 1)
    13        O        6.000      -0.3015  0.6618  2.1713    -0.71999 (mod 2)
    14        O        6.000       0.0776  0.2740  2.1713    -0.71999 (mod 2)
    15        O        6.000       0.2239  0.7963  2.1713    -0.71999 (mod 2)
    16        O        6.000       0.4196  0.5623  1.7588     0.27686 (mod 2)
    17        O        6.000       0.3033  0.0822  1.7588     0.27686 (mod 2)
    18        O        6.000       0.7771  0.2215  1.7588     0.27686 (mod 2)
    19        O        6.000       0.6967  0.0822  0.5251    -0.72320 (mod 2)
    20        O        6.000       0.5804  0.5623  0.5251    -0.72320 (mod 2)
    21        O        6.000       0.2229  0.2215  0.5251    -0.72320 (mod 2)
    22        O        6.000      -0.0758  0.8510  0.1130     0.27486 (mod 2)
    23        O        6.000      -0.1991  0.3749  0.1130     0.27486 (mod 2)
    24        O        6.000       0.2749  0.5061  0.1130     0.27486 (mod 2)
    25        O        6.000       0.1991  0.3749  1.3468    -0.72500 (mod 2)
    26        O        6.000       0.0758  0.8510  1.3468    -0.72500 (mod 2)
    27        O        6.000      -0.2749  0.5061  1.3468    -0.72500 (mod 2)
    28        O        6.000      -0.0777  0.2740  0.9377     0.28009 (mod 2)
    29        O        6.000       0.3015  0.6618  0.9377     0.28009 (mod 2)
    30        O        6.000      -0.2239  0.7963  0.9377     0.28009 (mod 2)
  ----------------------------------------------------------------------------
                                               IONIC PHASE:  -0.25308 (mod 1)
  ============================================================================


                            ELECTRONIC POLARIZATION
                            ~~~~~~~~~~~~~~~~~~~~~~~

  ============================================================================
   Spin    String     Weight      First k-point in string         Phase
  ----------------------------------------------------------------------------
    up        1      0.111111      0.0000  0.0000  0.0000     0.40099
    up        2      0.666667      0.0000  0.3849  0.0000     0.38600
    up        3      0.222222      0.3333  0.5774  0.0000     0.37733
  ----------------------------------------------------------------------------
   down      4       0.111111      0.0000  0.0000  0.0000    -0.09890
   down      5       0.666667      0.0000  0.3849  0.0000     0.88613
   down      6       0.222222      0.3333  0.5774  0.0000     0.87745
  ----------------------------------------------------------------------------
                                        Average phase (up):   0.38574
                                      Average phase (down):  -0.22525
                                          ELECTRONIC PHASE:   0.16049
  ============================================================================


                               SUMMARY OF PHASES
                               ~~~~~~~~~~~~~~~~~

                          Ionic Phase: -0.25308
                     Electronic Phase:  0.16049
                          TOTAL PHASE: -0.09259 MOD_TOT: 1


                             VALUES OF POLARIZATION
                             ~~~~~~~~~~~~~~~~~~~~~~

        The calculation of phases done along the direction of vector 3
        of the reciprocal lattice gives the following contribution to
        the polarization vector (in different units, and being Omega
        the volume of the unit cell):

           P =  -2.3880911  (mod  25.7921411)  (e/Omega).bohr

           P =  -0.0009785  (mod   0.0105677)  e/bohr^2

           P =  -0.0559402  (mod   0.6041716)  C/m^2

        The polarization direction is:  ( 0.00000 , 0.00000 , 1.00000 )


               ==================================================



     Writing output data file /home/aldair1809/Documentos/QE/4BFO/temp_tipoA/nscf/bifeo3.save/

     init_run     :     45.49s CPU     47.21s WALL (       1 calls)
     electrons    :   6284.55s CPU   6359.86s WALL (       1 calls)

     Called by init_run:
     wfcinit      :     41.30s CPU     42.23s WALL (       1 calls)
     wfcinit:atom :      0.19s CPU      0.20s WALL (      24 calls)
     wfcinit:wfcr :    115.51s CPU    116.45s WALL (      24 calls)
     potinit      :      0.43s CPU      0.57s WALL (       1 calls)
     hinit0       :      1.33s CPU      1.35s WALL (       1 calls)

     Called by electrons:
     c_bands      :   6104.80s CPU   6179.39s WALL (       1 calls)
     v_of_rho     :      0.35s CPU      0.39s WALL (       1 calls)
     v_h          :      0.01s CPU      0.02s WALL (       1 calls)
     v_xc         :      0.34s CPU      0.38s WALL (       1 calls)
     newd         :      2.30s CPU      2.88s WALL (       1 calls)

     Called by c_bands:
     init_us_2    :      0.88s CPU      0.90s WALL (      84 calls)
     ccgdiagg     :   5551.62s CPU   5620.60s WALL (     134 calls)
     wfcrot       :    551.28s CPU    556.09s WALL (     134 calls)

     Called by sum_band:

     Called by *cgdiagg:
     h_psi        :   2828.10s CPU   2879.87s WALL (  179473 calls)
     s_psi        :   1735.82s CPU   1745.03s WALL (  358836 calls)

     Called by h_psi:
     h_psi:calbec :    964.65s CPU    979.80s WALL (  179473 calls)
     vloc_psi     :    721.54s CPU    752.06s WALL (  179473 calls)
     add_vuspsi   :    922.13s CPU    926.28s WALL (  179473 calls)
     vhpsi        :    213.81s CPU    216.34s WALL (  179473 calls)
     hs_1psi      :   3314.30s CPU   3366.07s WALL (  179339 calls)
     s_1psi       :   1626.44s CPU   1638.71s WALL (  179339 calls)

     General routines
     calbec       :   1981.07s CPU   2007.68s WALL (  538345 calls)
     fft          :      0.24s CPU      0.26s WALL (      23 calls)
     ffts         :      0.01s CPU      0.01s WALL (       2 calls)
     fftw         :    618.98s CPU    647.70s WALL (  407190 calls)
     interpolate  :      0.03s CPU      0.03s WALL (       2 calls)
     davcio       :      0.03s CPU      1.69s WALL (     132 calls)

     Parallel routines
     fft_scatt_xy :     92.73s CPU     97.54s WALL (  407215 calls)
     fft_scatt_yz :    103.81s CPU    112.99s WALL (  407215 calls)

     Hubbard U routines
     vhpsi        :    213.81s CPU    216.34s WALL (  179473 calls)

     PWSCF        :      1h45m CPU      1h46m WALL


   This run was terminated on:  21:32:34  27Nov2024            

=------------------------------------------------------------------------------=
   JOB DONE.
=------------------------------------------------------------------------------=
