
     Program PWSCF v.6.7MaX starts on 29Sep2024 at 21:37:52 

     This program is part of the open-source Quantum ESPRESSO suite
     for quantum simulation of materials; please cite
         "P. Giannozzi et al., J. Phys.:Condens. Matter 21 395502 (2009);
         "P. Giannozzi et al., J. Phys.:Condens. Matter 29 465901 (2017);
          URL http://www.quantum-espresso.org", 
     in publications or presentations arising from this work. More details at
     http://www.quantum-espresso.org/quote

     Parallel version (MPI), running on     4 processors

     MPI processes distributed on     1 nodes
     R & G space division:  proc/nbgrp/npool/nimage =       4
     Waiting for input...
     Reading input from standard input

     Current dimensions of program PWSCF are:
     Max number of different atomic species (ntypx) = 10
     Max number of k-points (npk) =  40000
     Max angular momentum in pseudopotentials (lmaxx) =  3
     Message from routine iosys:
     wrong startingpot: use default (1)

     Subspace diagonalization in iterative solution of the eigenvalue problem:
     one sub-group per band group will be used
     scalapack distributed-memory algorithm (size of sub-group:  2*  2 procs)

     Message from routine setup:
     using ibrav=0 with symmetry is DISCOURAGED, use correct ibrav instead

     Parallelization info
     --------------------
     sticks:   dense  smooth     PW     G-vecs:    dense   smooth      PW
     Min         191     191     52                10703    10703    1626
     Max         193     193     53                10706    10706    1637
     Sum         769     769    211                42815    42815    6531



     bravais-lattice index     =            0
     lattice parameter (alat)  =      10.5468  a.u.
     unit-cell volume          =    2535.5110 (a.u.)^3
     number of atoms/cell      =           30
     number of atomic types    =            4
     number of electrons       =       294.00
     number of Kohn-Sham states=          200
     kinetic-energy cutoff     =      25.0000  Ry
     charge density cutoff     =     100.0000  Ry
     scf convergence threshold =      1.0E-03
     mixing beta               =       0.2000
     number of iterations used =            8  plain     mixing
     Exchange-correlation=  SLA  PW   PBX  PBC
                           (   1   4   3   4   0   0   0)

     celldm(1)=  10.546849  celldm(2)=   0.000000  celldm(3)=   0.000000
     celldm(4)=   0.000000  celldm(5)=   0.000000  celldm(6)=   0.000000

     crystal axes: (cart. coord. in units of alat)
               a(1) = (   1.000000  -0.000000  -0.000000 )  
               a(2) = (  -0.500000   0.866025  -0.000000 )  
               a(3) = (   0.000000  -0.000000   2.495552 )  

     reciprocal axes: (cart. coord. in units 2 pi/alat)
               b(1) = (  1.000000  0.577350  0.000000 )  
               b(2) = (  0.000000  1.154701  0.000000 )  
               b(3) = (  0.000000  0.000000  0.400713 )  


     PseudoPot. # 1 for O  read from file:
     /home/aldair1809/Programas/QE/q-e-qe-7.3/pseudo/o_pbe_v1.2.uspp.F.UPF
     MD5 check sum: 734c27235a0248c51dbae37a1fbe46ec
     Pseudo is Ultrasoft + core correction, Zval =  6.0
     Generated by new atomic code, or converted to UPF format
     Using radial grid of  737 points,  5 beta functions with: 
                l(1) =   0
                l(2) =   0
                l(3) =   1
                l(4) =   1
                l(5) =   2
     Q(r) pseudized with  8 coefficients,  rinner =    0.900   0.900   0.900
                                                       0.900   0.900

     PseudoPot. # 2 for Bi read from file:
     /home/aldair1809/Programas/QE/q-e-qe-7.3/pseudo/bi_pbe_v1.uspp.F.UPF
     MD5 check sum: cceb9f28ec65b6d7ff33140f5b0b1758
     Pseudo is Ultrasoft + core correction, Zval = 15.0
     Generated by new atomic code, or converted to UPF format
     Using radial grid of  899 points,  6 beta functions with: 
                l(1) =   0
                l(2) =   0
                l(3) =   1
                l(4) =   1
                l(5) =   2
                l(6) =   2
     Q(r) pseudized with  6 coefficients,  rinner =    1.000   1.000   1.000
                                                       1.000   1.000

     PseudoPot. # 3 for Fe read from file:
     /home/aldair1809/Programas/QE/q-e-qe-7.3/pseudo/fe_pbe_v1.5.uspp.F.UPF
     MD5 check sum: a130daea23fe5165f5d574ae7f82ed95
     Pseudo is Ultrasoft + core correction, Zval = 16.0
     Generated by new atomic code, or converted to UPF format
     Using radial grid of  861 points,  6 beta functions with: 
                l(1) =   0
                l(2) =   0
                l(3) =   1
                l(4) =   1
                l(5) =   2
                l(6) =   2
     Q(r) pseudized with  8 coefficients,  rinner =    1.000   1.000   1.000
                                                       1.000   1.000

     PseudoPot. # 4 for Fe read from file:
     /home/aldair1809/Programas/QE/q-e-qe-7.3/pseudo/fe_pbe_v1.5.uspp.F.UPF
     MD5 check sum: a130daea23fe5165f5d574ae7f82ed95
     Pseudo is Ultrasoft + core correction, Zval = 16.0
     Generated by new atomic code, or converted to UPF format
     Using radial grid of  861 points,  6 beta functions with: 
                l(1) =   0
                l(2) =   0
                l(3) =   1
                l(4) =   1
                l(5) =   2
                l(6) =   2
     Q(r) pseudized with  8 coefficients,  rinner =    1.000   1.000   1.000
                                                       1.000   1.000

     atomic species   valence    mass     pseudopotential
        O              6.00    15.99940     O ( 1.00)
        Bi            15.00   208.98040     Bi( 1.00)
        Fe1           16.00    55.84500     Fe( 1.00)
        Fe2           16.00    55.84500     Fe( 1.00)

     Starting magnetic structure 
     atomic species   magnetization
        O            0.000
        Bi           0.000
        Fe1         -0.800
        Fe2          0.800

      3 Sym. Ops. (no inversion) found


                                    s                        frac. trans.

      isym =  1     identity                                     

 cryst.   s( 1) = (     1          0          0      )
                  (     0          1          0      )
                  (     0          0          1      )

 cart.    s( 1) = (  1.0000000 -0.0000000  0.0000000 )
                  (  0.0000000  1.0000000  0.0000000 )
                  (  0.0000000  0.0000000  1.0000000 )


      isym =  2     120 deg rotation - cryst. axis [0,0,1]       

 cryst.   s( 2) = (     0          1          0      )
                  (    -1         -1          0      )
                  (     0          0          1      )

 cart.    s( 2) = ( -0.5000000 -0.8660254  0.0000000 )
                  (  0.8660254 -0.5000000  0.0000000 )
                  (  0.0000000  0.0000000  1.0000000 )


      isym =  3     120 deg rotation - cryst. axis [0,0,-1]      

 cryst.   s( 3) = (    -1         -1          0      )
                  (     1          0          0      )
                  (     0          0          1      )

 cart.    s( 3) = ( -0.5000000  0.8660254  0.0000000 )
                  ( -0.8660254 -0.5000000  0.0000000 )
                  (  0.0000000  0.0000000  1.0000000 )


   Cartesian axes

     site n.     atom                  positions (alat units)
         1           Fe1 tau(   1) = (   0.0000000   0.0000000   1.9384582  )
         2           Fe1 tau(   2) = (  -0.0000005   0.5773506   2.3615556  )
         3           Fe1 tau(   3) = (   0.5000005   0.2886748   1.5200787  )
         4           Fe2 tau(   4) = (   0.5000005   0.2886748   0.2722626  )
         5           Fe2 tau(   5) = (   0.0000000   0.0000000   0.6907071  )
         6           Fe2 tau(   6) = (  -0.0000005   0.5773506   1.1137452  )
         7           Bi  tau(   7) = (   0.5000005   0.2886748   2.0843143  )
         8           Bi  tau(   8) = (  -0.0000005   0.5773506   1.6713980  )
         9           Bi  tau(   9) = (  -0.0000005   0.5773506   0.4235448  )
        10           Bi  tau(  10) = (   0.0000000   0.0000000   0.0002821  )
        11           Bi  tau(  11) = (   0.0000000   0.0000000   1.2481025  )
        12           Bi  tau(  12) = (   0.5000005   0.2886748   0.8364865  )
        13           O   tau(  13) = (  -0.3105904   0.6551932   2.2011299  )
        14           O   tau(  14) = (   0.0878817   0.2694488   2.2011299  )
        15           O   tau(  15) = (   0.2227102   0.8074080   2.2011299  )
        16           O   tau(  16) = (   0.4087504   0.5589755   1.7846473  )
        17           O   tau(  17) = (   0.3115373   0.0745013   1.7846473  )
        18           O   tau(  18) = (   0.7797108   0.2325494   1.7846473  )
        19           O   tau(  19) = (   0.6884743   0.0745026   0.5368244  )
        20           O   tau(  20) = (   0.5912412   0.5589858   0.5368244  )
        21           O   tau(  21) = (   0.2202830   0.2325379   0.5368244  )
        22           O   tau(  22) = (  -0.0823010   0.8482993   0.1166193  )
        23           O   tau(  23) = (  -0.1934983   0.3706010   0.1166193  )
        24           O   tau(  24) = (   0.2757993   0.5131505   0.1166193  )
        25           O   tau(  25) = (   0.1934855   0.3705936   1.3644430  )
        26           O   tau(  26) = (   0.0823138   0.8482919   1.3644430  )
        27           O   tau(  27) = (  -0.2757993   0.5131653   1.3644430  )
        28           O   tau(  28) = (  -0.0878870   0.2694458   0.9533686  )
        29           O   tau(  29) = (   0.3105971   0.6551893   0.9533686  )
        30           O   tau(  30) = (  -0.2227086   0.8074149   0.9533686  )

   Crystallographic axes

     site n.     atom                  positions (cryst. coord.)
         1           Fe1 tau(   1) = (  0.0000000  0.0000000  0.7767652  )
         2           Fe1 tau(   2) = (  0.3333330  0.6666670  0.9463058  )
         3           Fe1 tau(   3) = (  0.6666670  0.3333330  0.6091152  )
         4           Fe2 tau(   4) = (  0.6666670  0.3333330  0.1090991  )
         5           Fe2 tau(   5) = (  0.0000000  0.0000000  0.2767753  )
         6           Fe2 tau(   6) = (  0.3333330  0.6666670  0.4462921  )
         7           Bi  tau(   7) = (  0.6666670  0.3333330  0.8352117  )
         8           Bi  tau(   8) = (  0.3333330  0.6666670  0.6697508  )
         9           Bi  tau(   9) = (  0.3333330  0.6666670  0.1697199  )
        10           Bi  tau(  10) = (  0.0000000  0.0000000  0.0001130  )
        11           Bi  tau(  11) = (  0.0000000  0.0000000  0.5001308  )
        12           Bi  tau(  12) = (  0.6666670  0.3333330  0.3351910  )
        13           O   tau(  13) = (  0.0676856  0.7565520  0.8820212  )
        14           O   tau(  14) = (  0.2434480  0.3111326  0.8820212  )
        15           O   tau(  15) = (  0.6888674  0.9323144  0.8820212  )
        16           O   tau(  16) = (  0.7314750  0.6454493  0.7151312  )
        17           O   tau(  17) = (  0.3545507  0.0860267  0.7151312  )
        18           O   tau(  18) = (  0.9139733  0.2685250  0.7151312  )
        19           O   tau(  19) = (  0.7314884  0.0860282  0.2151125  )
        20           O   tau(  20) = (  0.9139718  0.6454612  0.2151125  )
        21           O   tau(  21) = (  0.3545388  0.2685116  0.2151125  )
        22           O   tau(  22) = (  0.4074649  0.9795317  0.0467309  )
        23           O   tau(  23) = (  0.0204683  0.4279331  0.0467309  )
        24           O   tau(  24) = (  0.5720669  0.5925351  0.0467309  )
        25           O   tau(  25) = (  0.4074478  0.4279246  0.5467499  )
        26           O   tau(  26) = (  0.5720754  0.9795232  0.5467499  )
        27           O   tau(  27) = (  0.0204768  0.5925522  0.5467499  )
        28           O   tau(  28) = (  0.0676775  0.3111292  0.3820271  )
        29           O   tau(  29) = (  0.6888708  0.7565474  0.3820271  )
        30           O   tau(  30) = (  0.2434526  0.9323225  0.3820271  )

     number of k points=    10  Gaussian smearing, width (Ry)=  0.0100
                       cart. coord. in units 2pi/alat
        k(    1) = (   0.0000000   0.0000000   0.0000000), wk =   0.0208333
        k(    2) = (   0.0000000   0.0000000   0.1335710), wk =   0.0416667
        k(    3) = (   0.0000000   0.2886751   0.0000000), wk =   0.1250000
        k(    4) = (   0.0000000   0.2886751   0.1335710), wk =   0.1250000
        k(    5) = (   0.0000000  -0.5773503   0.0000000), wk =   0.0625000
        k(    6) = (   0.0000000  -0.5773503   0.1335710), wk =   0.1250000
        k(    7) = (   0.2500000   0.4330127   0.0000000), wk =   0.1250000
        k(    8) = (   0.2500000   0.4330127   0.1335710), wk =   0.1250000
        k(    9) = (  -0.2500000   0.1443376   0.1335710), wk =   0.1250000
        k(   10) = (   0.2500000  -0.4330127  -0.1335710), wk =   0.1250000

                       cryst. coord.
        k(    1) = (   0.0000000   0.0000000   0.0000000), wk =   0.0208333
        k(    2) = (   0.0000000   0.0000000   0.3333333), wk =   0.0416667
        k(    3) = (   0.0000000   0.2500000   0.0000000), wk =   0.1250000
        k(    4) = (   0.0000000   0.2500000   0.3333333), wk =   0.1250000
        k(    5) = (   0.0000000  -0.5000000   0.0000000), wk =   0.0625000
        k(    6) = (   0.0000000  -0.5000000   0.3333333), wk =   0.1250000
        k(    7) = (   0.2500000   0.2500000   0.0000000), wk =   0.1250000
        k(    8) = (   0.2500000   0.2500000   0.3333333), wk =   0.1250000
        k(    9) = (  -0.2500000   0.2500000   0.3333333), wk =   0.1250000
        k(   10) = (   0.2500000  -0.5000000  -0.3333333), wk =   0.1250000

     Dense  grid:    42815 G-vectors     FFT dimensions: (  36,  36,  90)

     Dynamical RAM for                 wfc:       4.08 MB

     Dynamical RAM for     wfc (w. buffer):      85.75 MB

     Dynamical RAM for           str. fact:       0.65 MB

     Dynamical RAM for           local pot:       0.00 MB

     Dynamical RAM for          nlocal pot:       9.19 MB

     Dynamical RAM for                qrad:       3.22 MB

     Dynamical RAM for          rho,v,vnew:       2.34 MB

     Dynamical RAM for               rhoin:       0.78 MB

     Dynamical RAM for            rho*nmix:       5.23 MB

     Dynamical RAM for           G-vectors:       0.69 MB

     Dynamical RAM for          h,s,v(r/c):       0.46 MB

     Dynamical RAM for          <psi|beta>:       1.37 MB

     Dynamical RAM for      wfcinit/wfcrot:       9.28 MB

     Dynamical RAM for           addusdens:      33.48 MB

     Estimated static dynamical RAM per process >     110.03 MB

     Estimated max dynamical RAM per process >     143.51 MB

     Estimated total dynamical RAM >     574.05 MB

     Check: negative core charge=   -0.000640
     Generating pointlists ...
     new r_m :   0.1458 (alat units)  1.5374 (a.u.) for type    1
     new r_m :   0.1687 (alat units)  1.7788 (a.u.) for type    2
     new r_m :   0.1458 (alat units)  1.5374 (a.u.) for type    3
     new r_m :   0.1458 (alat units)  1.5374 (a.u.) for type    4

     Initial potential from superposition of free atoms

     starting charge  281.99969, renormalised to  294.00000

     negative rho (up, down):  1.188E-01 1.188E-01
     Starting wfcs are  204 randomized atomic wfcs

     total cpu time spent up to now is       45.9 secs

     Self-consistent Calculation

     iteration #  1     ecut=    25.00 Ry     beta= 0.20
     CG style diagonalization
     ethr =  1.00E-02,  avg # of iterations =  2.6

     negative rho (up, down):  1.151E-01 1.151E-01

     total cpu time spent up to now is      261.5 secs

     total energy              =   -3187.42991910 Ry
     estimated scf accuracy    <      22.92459991 Ry

     total magnetization       =    -0.00 Bohr mag/cell
     absolute magnetization    =    30.61 Bohr mag/cell

     iteration #  2     ecut=    25.00 Ry     beta= 0.20
     CG style diagonalization
     ethr =  7.80E-03,  avg # of iterations =  3.0

     negative rho (up, down):  1.111E-01 1.111E-01

     total cpu time spent up to now is      476.2 secs

     total energy              =   -3190.16289234 Ry
     estimated scf accuracy    <       9.86444116 Ry

     total magnetization       =    -0.00 Bohr mag/cell
     absolute magnetization    =    29.92 Bohr mag/cell

     iteration #  3     ecut=    25.00 Ry     beta= 0.20
     CG style diagonalization
     ethr =  3.36E-03,  avg # of iterations =  3.2

     negative rho (up, down):  1.113E-01 1.113E-01

     total cpu time spent up to now is      727.3 secs

     total energy              =   -3191.40246626 Ry
     estimated scf accuracy    <       5.36778431 Ry

     total magnetization       =    -0.00 Bohr mag/cell
     absolute magnetization    =    27.77 Bohr mag/cell

     iteration #  4     ecut=    25.00 Ry     beta= 0.20
     CG style diagonalization
     ethr =  1.83E-03,  avg # of iterations =  3.0

     negative rho (up, down):  1.100E-01 1.100E-01

     total cpu time spent up to now is      948.4 secs

     total energy              =   -3192.12631462 Ry
     estimated scf accuracy    <       4.65020655 Ry

     total magnetization       =     0.00 Bohr mag/cell
     absolute magnetization    =    27.90 Bohr mag/cell

     iteration #  5     ecut=    25.00 Ry     beta= 0.20
     CG style diagonalization
     ethr =  1.58E-03,  avg # of iterations =  3.5

     negative rho (up, down):  1.098E-01 1.098E-01

     total cpu time spent up to now is     1225.4 secs

     total energy              =   -3193.00578107 Ry
     estimated scf accuracy    <       8.42685030 Ry

     total magnetization       =     0.00 Bohr mag/cell
     absolute magnetization    =    28.87 Bohr mag/cell

     iteration #  6     ecut=    25.00 Ry     beta= 0.20
     CG style diagonalization
     ethr =  1.58E-03,  avg # of iterations =  3.1

     negative rho (up, down):  1.100E-01 1.100E-01

     total cpu time spent up to now is     1446.8 secs

     total energy              =   -3192.88678896 Ry
     estimated scf accuracy    <       1.95519670 Ry

     total magnetization       =    -0.00 Bohr mag/cell
     absolute magnetization    =    28.74 Bohr mag/cell

     iteration #  7     ecut=    25.00 Ry     beta= 0.20
     CG style diagonalization
     ethr =  6.65E-04,  avg # of iterations =  3.0

     negative rho (up, down):  1.105E-01 1.105E-01

     total cpu time spent up to now is     1665.0 secs

     total energy              =   -3193.08372538 Ry
     estimated scf accuracy    <       0.10803548 Ry

     total magnetization       =    -0.00 Bohr mag/cell
     absolute magnetization    =    28.00 Bohr mag/cell

     iteration #  8     ecut=    25.00 Ry     beta= 0.20
     CG style diagonalization
     c_bands:  2 eigenvalues not converged
     c_bands:  3 eigenvalues not converged
     c_bands:  3 eigenvalues not converged
     c_bands:  3 eigenvalues not converged
     c_bands:  4 eigenvalues not converged
     c_bands:  4 eigenvalues not converged
     c_bands:  2 eigenvalues not converged
     c_bands:  2 eigenvalues not converged
     c_bands:  2 eigenvalues not converged
     c_bands:  2 eigenvalues not converged
     c_bands:  4 eigenvalues not converged
     c_bands:  5 eigenvalues not converged
     c_bands:  4 eigenvalues not converged
     c_bands:  3 eigenvalues not converged
     c_bands:  2 eigenvalues not converged
     c_bands:  2 eigenvalues not converged
     c_bands:  1 eigenvalues not converged
     c_bands:  2 eigenvalues not converged
     ethr =  3.67E-05,  avg # of iterations =  4.1

     negative rho (up, down):  1.107E-01 1.107E-01

     total cpu time spent up to now is     1989.1 secs

     total energy              =   -3193.11786422 Ry
     estimated scf accuracy    <       0.06379019 Ry

     total magnetization       =     0.00 Bohr mag/cell
     absolute magnetization    =    27.54 Bohr mag/cell

     iteration #  9     ecut=    25.00 Ry     beta= 0.20
     CG style diagonalization
     c_bands:  1 eigenvalues not converged
     c_bands:  1 eigenvalues not converged
     c_bands:  1 eigenvalues not converged
     c_bands:  2 eigenvalues not converged
     c_bands:  1 eigenvalues not converged
     c_bands:  1 eigenvalues not converged
     ethr =  2.17E-05,  avg # of iterations =  3.1

     negative rho (up, down):  1.109E-01 1.109E-01

     total cpu time spent up to now is     2219.5 secs

     total energy              =   -3193.12330934 Ry
     estimated scf accuracy    <       0.12080642 Ry

     total magnetization       =    -0.00 Bohr mag/cell
     absolute magnetization    =    27.33 Bohr mag/cell

     iteration # 10     ecut=    25.00 Ry     beta= 0.20
     CG style diagonalization
     c_bands:  1 eigenvalues not converged
     ethr =  2.17E-05,  avg # of iterations =  3.0

     negative rho (up, down):  1.112E-01 1.112E-01

     total cpu time spent up to now is     2422.1 secs

     total energy              =   -3193.09411925 Ry
     estimated scf accuracy    <       0.11198260 Ry

     total magnetization       =     0.00 Bohr mag/cell
     absolute magnetization    =    27.30 Bohr mag/cell

     iteration # 11     ecut=    25.00 Ry     beta= 0.20
     CG style diagonalization
     ethr =  2.17E-05,  avg # of iterations =  3.2

     negative rho (up, down):  1.113E-01 1.113E-01

     total cpu time spent up to now is     2634.7 secs

     total energy              =   -3193.10816258 Ry
     estimated scf accuracy    <       0.03056825 Ry

     total magnetization       =    -0.00 Bohr mag/cell
     absolute magnetization    =    27.78 Bohr mag/cell

     iteration # 12     ecut=    25.00 Ry     beta= 0.20
     CG style diagonalization
     c_bands:  1 eigenvalues not converged
     c_bands:  1 eigenvalues not converged
     c_bands:  1 eigenvalues not converged
     ethr =  1.04E-05,  avg # of iterations =  3.2

     negative rho (up, down):  1.115E-01 1.115E-01

     total cpu time spent up to now is     2845.3 secs

     total energy              =   -3193.11395987 Ry
     estimated scf accuracy    <       0.00648288 Ry

     total magnetization       =    -0.00 Bohr mag/cell
     absolute magnetization    =    27.57 Bohr mag/cell

     iteration # 13     ecut=    25.00 Ry     beta= 0.20
     CG style diagonalization
     c_bands:  2 eigenvalues not converged
     c_bands:  1 eigenvalues not converged
     c_bands:  2 eigenvalues not converged
     c_bands:  1 eigenvalues not converged
     c_bands:  2 eigenvalues not converged
     c_bands:  2 eigenvalues not converged
     ethr =  2.21E-06,  avg # of iterations =  3.2

     negative rho (up, down):  1.115E-01 1.115E-01

     total cpu time spent up to now is     3061.9 secs

     total energy              =   -3193.11406146 Ry
     estimated scf accuracy    <       0.00281802 Ry

     total magnetization       =    -0.00 Bohr mag/cell
     absolute magnetization    =    27.56 Bohr mag/cell

     iteration # 14     ecut=    25.00 Ry     beta= 0.20
     CG style diagonalization
     c_bands:  1 eigenvalues not converged
     c_bands:  1 eigenvalues not converged
     c_bands:  1 eigenvalues not converged
     c_bands:  1 eigenvalues not converged
     ethr =  9.59E-07,  avg # of iterations =  3.1

     negative rho (up, down):  1.116E-01 1.116E-01

     Magnetic moment per site:
     atom:    1    charge:   13.0480    magn:   -3.7139    constr:    0.0000
     atom:    2    charge:   13.0538    magn:   -3.6000    constr:    0.0000
     atom:    3    charge:   13.0723    magn:   -3.5888    constr:    0.0000
     atom:    4    charge:   13.0727    magn:    3.5883    constr:    0.0000
     atom:    5    charge:   13.0486    magn:    3.7135    constr:    0.0000
     atom:    6    charge:   13.0542    magn:    3.5997    constr:    0.0000
     atom:    7    charge:   10.4863    magn:   -0.0165    constr:    0.0000
     atom:    8    charge:   10.4856    magn:   -0.0130    constr:    0.0000
     atom:    9    charge:   10.4856    magn:    0.0130    constr:    0.0000
     atom:   10    charge:   10.4885    magn:   -0.0040    constr:    0.0000
     atom:   11    charge:   10.4885    magn:    0.0040    constr:    0.0000
     atom:   12    charge:   10.4863    magn:    0.0165    constr:    0.0000
     atom:   13    charge:    5.3969    magn:   -0.2161    constr:    0.0000
     atom:   14    charge:    5.3969    magn:   -0.2161    constr:    0.0000
     atom:   15    charge:    5.3969    magn:   -0.2161    constr:    0.0000
     atom:   16    charge:    5.3944    magn:   -0.2292    constr:    0.0000
     atom:   17    charge:    5.3944    magn:   -0.2292    constr:    0.0000
     atom:   18    charge:    5.3944    magn:   -0.2292    constr:    0.0000
     atom:   19    charge:    5.3946    magn:    0.2292    constr:    0.0000
     atom:   20    charge:    5.3946    magn:    0.2292    constr:    0.0000
     atom:   21    charge:    5.3946    magn:    0.2292    constr:    0.0000
     atom:   22    charge:    5.3863    magn:    0.0717    constr:    0.0000
     atom:   23    charge:    5.3863    magn:    0.0717    constr:    0.0000
     atom:   24    charge:    5.3863    magn:    0.0717    constr:    0.0000
     atom:   25    charge:    5.3862    magn:   -0.0716    constr:    0.0000
     atom:   26    charge:    5.3862    magn:   -0.0716    constr:    0.0000
     atom:   27    charge:    5.3862    magn:   -0.0716    constr:    0.0000
     atom:   28    charge:    5.3969    magn:    0.2162    constr:    0.0000
     atom:   29    charge:    5.3969    magn:    0.2162    constr:    0.0000
     atom:   30    charge:    5.3969    magn:    0.2162    constr:    0.0000

     total cpu time spent up to now is     3269.7 secs

     End of self-consistent calculation

 ------ SPIN UP ------------


          k = 0.0000 0.0000 0.0000 (  5411 PWs)   bands (ev):

   -79.6709 -79.5107 -79.3814 -74.6774 -74.6634 -74.5425 -45.5177 -45.4716
   -45.4716 -45.3316 -45.3316 -45.3235 -45.2736 -45.1704 -45.1704 -40.6870
   -40.6656 -40.6367 -40.6366 -40.6184 -40.6184 -40.5511 -40.5068 -40.5068
   -11.2538 -11.2538 -11.2162 -11.2162 -11.1967 -11.1967 -11.1665 -11.1511
   -11.1411 -11.1411 -11.1375 -11.1375 -11.1266 -11.1266 -11.1070 -11.0901
   -11.0818 -11.0818 -11.0754 -11.0754 -11.0700 -11.0700 -11.0654 -11.0595
   -11.0595 -11.0508 -11.0369 -11.0369 -11.0219 -11.0219  -7.9808  -7.6030
    -7.5071  -6.7505  -6.7000  -6.3036  -6.3035  -6.1789  -6.1788  -6.1787
    -6.0766  -6.0765  -5.9815  -5.9814  -5.8258  -5.8258  -5.6573  -5.6573
     0.8208   1.0588   1.1365   1.9079   2.0412   2.7921   4.9467   4.9467
     5.0662   5.4404   5.4404   5.5435   5.5436   5.5472   5.7317   5.7375
     5.7375   5.9522   6.0119   6.0119   6.2035   6.2036   6.2689   6.4283
     6.4284   6.4300   6.5246   6.7364   6.7364   7.0194   7.0194   7.1760
     7.3372   7.6132   7.6132   7.7233   7.8485   7.8486   7.9642   7.9642
     8.1569   8.2911   8.3434   8.3434   8.5095   8.5095   8.5261   8.6451
     8.6627   8.6627   8.8248   8.8249   8.9762   8.9762   9.3217   9.3218
     9.3718   9.3719   9.3719   9.4296   9.4297   9.7741   9.7742  10.0964
    10.1880  10.1880  10.2604  10.4323  10.5295  10.6644  10.7384  10.8817
    10.8817  11.5248  11.5249  12.0515  12.0515  12.2750  12.2773  12.2773
    12.3408  12.3618  12.4362  12.4362  13.2110  13.2110  13.8372  13.8372
    14.3874  14.3874  15.0659  15.1813  15.2860  15.3328  16.3798  16.3799
    16.5163  16.5163  16.5598  16.5598  16.8543  16.9135  17.1076  17.1076
    17.1837  17.1837  17.5957  17.5957  18.2994  19.6022  19.8232  19.9930
    20.6975  20.6975  20.9815  21.0596  21.7008  21.7008  21.8083  21.8085
    22.1327  22.1330  22.8653  23.0378  23.0570  23.0577  23.2050  23.7367

     occupation numbers 
     1.0000   1.0000   1.0000   1.0000   1.0000   1.0000   1.0000   1.0000
     1.0000   1.0000   1.0000   1.0000   1.0000   1.0000   1.0000   1.0000
     1.0000   1.0000   1.0000   1.0000   1.0000   1.0000   1.0000   1.0000
     1.0000   1.0000   1.0000   1.0000   1.0000   1.0000   1.0000   1.0000
     1.0000   1.0000   1.0000   1.0000   1.0000   1.0000   1.0000   1.0000
     1.0000   1.0000   1.0000   1.0000   1.0000   1.0000   1.0000   1.0000
     1.0000   1.0000   1.0000   1.0000   1.0000   1.0000   1.0000   1.0000
     1.0000   1.0000   1.0000   1.0000   1.0000   1.0000   1.0000   1.0000
     1.0000   1.0000   1.0000   1.0000   1.0000   1.0000   1.0000   1.0000
     1.0000   1.0000   1.0000   1.0000   1.0000   1.0000   1.0000   1.0000
     1.0000   1.0000   1.0000   1.0000   1.0000   1.0000   1.0000   1.0000
     1.0000   1.0000   1.0000   1.0000   1.0000   1.0000   1.0000   1.0000
     1.0000   1.0000   1.0000   1.0000   1.0000   1.0000   1.0000   1.0000
     1.0000   1.0000   1.0000   1.0000   1.0000   1.0000   1.0000   1.0000
     1.0000   1.0000   1.0000   1.0000   1.0000   1.0000   1.0000   1.0000
     1.0000   1.0000   1.0000   1.0000   1.0000   1.0000   1.0000   1.0000
     1.0000   1.0000   1.0000   1.0000   1.0000   1.0000   1.0000   1.0000
     1.0000   1.0000   1.0000   1.0000   1.0000   1.0000   1.0000   1.0000
     1.0000   0.9933   0.9933   0.0013   0.0013   0.0000   0.0000   0.0000
     0.0000   0.0000   0.0000   0.0000   0.0000   0.0000   0.0000   0.0000
     0.0000   0.0000   0.0000   0.0000   0.0000   0.0000   0.0000   0.0000
     0.0000   0.0000   0.0000   0.0000   0.0000   0.0000   0.0000   0.0000
     0.0000   0.0000   0.0000   0.0000   0.0000   0.0000   0.0000   0.0000
     0.0000   0.0000   0.0000   0.0000   0.0000   0.0000   0.0000   0.0000
     0.0000   0.0000   0.0000   0.0000   0.0000   0.0000   0.0000   0.0000

          k = 0.0000 0.0000 0.1336 (  5394 PWs)   bands (ev):

   -79.6700 -79.5098 -79.3805 -74.6766 -74.6626 -74.5417 -45.5094 -45.4697
   -45.4697 -45.3300 -45.3300 -45.3171 -45.2638 -45.1684 -45.1683 -40.6788
   -40.6590 -40.6347 -40.6347 -40.6173 -40.6172 -40.5429 -40.5048 -40.5048
   -11.2500 -11.2499 -11.2294 -11.2293 -11.1780 -11.1778 -11.1663 -11.1546
   -11.1538 -11.1510 -11.1352 -11.1341 -11.1258 -11.1254 -11.1038 -11.0924
   -11.0810 -11.0798 -11.0769 -11.0753 -11.0690 -11.0684 -11.0645 -11.0606
   -11.0594 -11.0507 -11.0353 -11.0350 -11.0232 -11.0231  -7.9566  -7.7371
    -7.2977  -7.0119  -6.4967  -6.3036  -6.3035  -6.2201  -6.1800  -6.1798
    -6.0716  -6.0708  -5.9882  -5.9876  -5.8227  -5.8226  -5.6581  -5.6581
     0.8438   0.9465   1.3251   1.6164   2.3519   2.6677   4.9736   4.9738
     5.0933   5.3261   5.3267   5.4025   5.5781   5.6276   5.7103   5.8367
     5.9164   5.9786   5.9884   6.0906   6.2708   6.2963   6.3080   6.4014
     6.4068   6.4557   6.5268   6.5993   6.6383   6.8706   7.0141   7.0374
     7.5647   7.6070   7.6440   7.7439   7.7712   7.7796   7.9690   8.0538
     8.1300   8.3070   8.3231   8.4198   8.4338   8.5234   8.5320   8.7168
     8.7345   8.8514   8.8678   8.8778   8.9928   9.0571   9.1687   9.1698
     9.2275   9.2669   9.3131   9.5340   9.5437   9.7309   9.7384  10.1383
    10.2193  10.2343  10.2862  10.3858  10.5258  10.6618  10.8074  10.8818
    10.8940  11.5183  11.5329  12.0542  12.0641  12.2766  12.2868  12.2892
    12.3621  12.3758  12.4341  12.4367  13.2103  13.2115  13.8502  13.8528
    14.3861  14.3870  14.7413  14.8095  15.8873  15.9141  16.3749  16.3780
    16.4503  16.4559  16.5581  16.5889  16.6992  16.7001  16.9058  16.9102
    17.3549  17.3611  17.5478  17.5513  18.4902  19.2860  19.8916  20.3913
    20.7099  20.7999  20.8018  21.0906  21.2156  21.2235  22.2210  22.2681
    22.4394  22.4756  22.7058  22.7316  22.8790  23.0268  23.0833  23.2670

     occupation numbers 
     1.0000   1.0000   1.0000   1.0000   1.0000   1.0000   1.0000   1.0000
     1.0000   1.0000   1.0000   1.0000   1.0000   1.0000   1.0000   1.0000
     1.0000   1.0000   1.0000   1.0000   1.0000   1.0000   1.0000   1.0000
     1.0000   1.0000   1.0000   1.0000   1.0000   1.0000   1.0000   1.0000
     1.0000   1.0000   1.0000   1.0000   1.0000   1.0000   1.0000   1.0000
     1.0000   1.0000   1.0000   1.0000   1.0000   1.0000   1.0000   1.0000
     1.0000   1.0000   1.0000   1.0000   1.0000   1.0000   1.0000   1.0000
     1.0000   1.0000   1.0000   1.0000   1.0000   1.0000   1.0000   1.0000
     1.0000   1.0000   1.0000   1.0000   1.0000   1.0000   1.0000   1.0000
     1.0000   1.0000   1.0000   1.0000   1.0000   1.0000   1.0000   1.0000
     1.0000   1.0000   1.0000   1.0000   1.0000   1.0000   1.0000   1.0000
     1.0000   1.0000   1.0000   1.0000   1.0000   1.0000   1.0000   1.0000
     1.0000   1.0000   1.0000   1.0000   1.0000   1.0000   1.0000   1.0000
     1.0000   1.0000   1.0000   1.0000   1.0000   1.0000   1.0000   1.0000
     1.0000   1.0000   1.0000   1.0000   1.0000   1.0000   1.0000   1.0000
     1.0000   1.0000   1.0000   1.0000   1.0000   1.0000   1.0000   1.0000
     1.0000   1.0000   1.0000   1.0000   1.0000   1.0000   1.0000   1.0000
     1.0000   1.0000   1.0000   1.0000   1.0000   1.0000   1.0000   1.0000
     1.0000   0.9944   0.9915   0.0012   0.0009   0.0000   0.0000   0.0000
     0.0000   0.0000   0.0000   0.0000   0.0000   0.0000   0.0000   0.0000
     0.0000   0.0000   0.0000   0.0000   0.0000   0.0000   0.0000   0.0000
     0.0000   0.0000   0.0000   0.0000   0.0000   0.0000   0.0000   0.0000
     0.0000   0.0000   0.0000   0.0000   0.0000   0.0000   0.0000   0.0000
     0.0000   0.0000   0.0000   0.0000   0.0000   0.0000   0.0000   0.0000
     0.0000   0.0000   0.0000   0.0000   0.0000   0.0000   0.0000   0.0000

          k = 0.0000 0.2887 0.0000 (  5353 PWs)   bands (ev):

   -79.6687 -79.5085 -79.3792 -74.6755 -74.6615 -74.5406 -45.5080 -45.4641
   -45.4590 -45.3239 -45.3186 -45.3143 -45.2626 -45.1627 -45.1573 -40.6782
   -40.6570 -40.6300 -40.6256 -40.6110 -40.6053 -40.5413 -40.4997 -40.4945
   -11.2454 -11.2312 -11.2288 -11.2156 -11.1738 -11.1692 -11.1660 -11.1633
   -11.1590 -11.1481 -11.1302 -11.1275 -11.1195 -11.1163 -11.1067 -11.0941
   -11.0855 -11.0824 -11.0800 -11.0775 -11.0728 -11.0702 -11.0654 -11.0634
   -11.0593 -11.0491 -11.0426 -11.0365 -11.0303 -11.0249  -7.7886  -7.4430
    -7.3414  -6.7847  -6.6729  -6.4585  -6.4015  -6.3550  -6.2418  -6.1866
    -6.1228  -6.1125  -6.0122  -5.9947  -5.8812  -5.8576  -5.6952  -5.6636
     0.9001   1.0640   1.1814   1.7105   1.8740   2.2847   5.1018   5.1850
     5.2346   5.3757   5.4700   5.6313   5.6623   5.7213   5.7820   5.8391
     5.9768   6.0421   6.1298   6.1811   6.2654   6.3581   6.4147   6.4494
     6.6450   6.7053   6.8857   7.0072   7.0608   7.1776   7.2570   7.3294
     7.4522   7.5352   7.5872   7.6551   7.7941   7.8391   7.8736   7.9847
     8.1496   8.2047   8.2502   8.3147   8.3698   8.4709   8.5300   8.6383
     8.6751   8.7264   8.8111   8.8668   8.9531   9.0103   9.0480   9.1604
     9.2027   9.2349   9.2522   9.4218   9.4526   9.4969   9.5784   9.9577
    10.0872  10.1899  10.3455  10.4592  10.5621  10.6856  10.8076  10.9468
    11.0563  11.3741  11.5076  12.0271  12.0868  12.1663  12.2747  12.3401
    12.3934  12.4194  12.4990  12.6329  13.2301  13.3138  13.6405  13.8150
    14.1112  14.3457  14.8372  15.1576  15.1888  15.4081  15.5393  15.9128
    15.9782  16.0802  16.5365  16.5900  16.6789  16.7604  16.8616  17.0871
    17.1570  17.2265  17.3156  17.4125  18.9584  19.9439  20.1541  20.3659
    21.0482  21.2175  21.2663  21.3822  21.6981  21.9889  22.1246  22.2271
    22.3574  22.5513  22.7969  23.0443  23.0730  23.2170  23.3096  23.3639

     occupation numbers 
     1.0000   1.0000   1.0000   1.0000   1.0000   1.0000   1.0000   1.0000
     1.0000   1.0000   1.0000   1.0000   1.0000   1.0000   1.0000   1.0000
     1.0000   1.0000   1.0000   1.0000   1.0000   1.0000   1.0000   1.0000
     1.0000   1.0000   1.0000   1.0000   1.0000   1.0000   1.0000   1.0000
     1.0000   1.0000   1.0000   1.0000   1.0000   1.0000   1.0000   1.0000
     1.0000   1.0000   1.0000   1.0000   1.0000   1.0000   1.0000   1.0000
     1.0000   1.0000   1.0000   1.0000   1.0000   1.0000   1.0000   1.0000
     1.0000   1.0000   1.0000   1.0000   1.0000   1.0000   1.0000   1.0000
     1.0000   1.0000   1.0000   1.0000   1.0000   1.0000   1.0000   1.0000
     1.0000   1.0000   1.0000   1.0000   1.0000   1.0000   1.0000   1.0000
     1.0000   1.0000   1.0000   1.0000   1.0000   1.0000   1.0000   1.0000
     1.0000   1.0000   1.0000   1.0000   1.0000   1.0000   1.0000   1.0000
     1.0000   1.0000   1.0000   1.0000   1.0000   1.0000   1.0000   1.0000
     1.0000   1.0000   1.0000   1.0000   1.0000   1.0000   1.0000   1.0000
     1.0000   1.0000   1.0000   1.0000   1.0000   1.0000   1.0000   1.0000
     1.0000   1.0000   1.0000   1.0000   1.0000   1.0000   1.0000   1.0000
     1.0000   1.0000   1.0000   1.0000   1.0000   1.0000   1.0000   1.0000
     1.0000   1.0000   1.0000   1.0000   1.0000   1.0000   1.0000   1.0000
     1.0000   1.0000   0.9960   0.0030   0.0004   0.0000   0.0000   0.0000
     0.0000   0.0000   0.0000   0.0000   0.0000   0.0000   0.0000   0.0000
     0.0000   0.0000   0.0000   0.0000   0.0000   0.0000   0.0000   0.0000
     0.0000   0.0000   0.0000   0.0000   0.0000   0.0000   0.0000   0.0000
     0.0000   0.0000   0.0000   0.0000   0.0000   0.0000   0.0000   0.0000
     0.0000   0.0000   0.0000   0.0000   0.0000   0.0000   0.0000   0.0000
     0.0000   0.0000   0.0000   0.0000   0.0000   0.0000   0.0000   0.0000

          k = 0.0000 0.2887 0.1336 (  5360 PWs)   bands (ev):

   -79.6689 -79.5087 -79.3794 -74.6757 -74.6617 -74.5408 -45.5083 -45.4643
   -45.4611 -45.3243 -45.3206 -45.3145 -45.2640 -45.1630 -45.1596 -40.6776
   -40.6580 -40.6299 -40.6276 -40.6117 -40.6074 -40.5423 -40.4999 -40.4967
   -11.2494 -11.2313 -11.2190 -11.2103 -11.1940 -11.1804 -11.1661 -11.1523
   -11.1485 -11.1430 -11.1336 -11.1279 -11.1199 -11.1179 -11.1061 -11.0956
   -11.0852 -11.0830 -11.0793 -11.0781 -11.0742 -11.0685 -11.0657 -11.0638
   -11.0597 -11.0492 -11.0430 -11.0378 -11.0302 -11.0232  -7.7683  -7.5534
    -7.1791  -6.9034  -6.6754  -6.4204  -6.3899  -6.3265  -6.2521  -6.2206
    -6.1065  -6.0805  -6.0220  -6.0121  -5.8895  -5.8574  -5.6933  -5.6634
     0.8999   1.0383   1.2411   1.5994   1.9818   2.2538   5.0777   5.2140
     5.2418   5.3810   5.5096   5.6052   5.6375   5.6927   5.7948   5.8820
     5.9515   6.0477   6.1061   6.1283   6.2445   6.3239   6.4064   6.5374
     6.6334   6.7631   6.8615   6.9626   7.0629   7.2121   7.2338   7.3296
     7.4673   7.5195   7.5912   7.6924   7.7563   7.8715   7.9187   7.9654
     8.0917   8.1880   8.2706   8.3128   8.3706   8.4601   8.5139   8.5879
     8.7173   8.7495   8.7920   8.8499   8.9460   9.0074   9.0779   9.0976
     9.2050   9.2502   9.3056   9.4107   9.4301   9.5214   9.5686  10.0028
    10.0724  10.1665  10.3203  10.4514  10.5931  10.6768  10.8367  10.9524
    11.0535  11.3613  11.5047  12.0234  12.0875  12.1616  12.2788  12.3355
    12.3968  12.4226  12.4963  12.6401  13.2321  13.3054  13.6236  13.8020
    14.1129  14.3473  14.7641  15.0937  15.3424  15.4051  15.4867  15.9170
    16.0101  16.3105  16.3693  16.5047  16.8100  16.8240  16.8957  16.9451
    17.0676  17.1864  17.3689  17.4110  19.0457  19.7389  20.1089  20.6262
    20.9986  21.2386  21.3167  21.3771  21.4765  21.8114  22.2891  22.4030
    22.5270  22.7074  22.7469  22.8422  22.9324  23.1956  23.3288  23.3549

     occupation numbers 
     1.0000   1.0000   1.0000   1.0000   1.0000   1.0000   1.0000   1.0000
     1.0000   1.0000   1.0000   1.0000   1.0000   1.0000   1.0000   1.0000
     1.0000   1.0000   1.0000   1.0000   1.0000   1.0000   1.0000   1.0000
     1.0000   1.0000   1.0000   1.0000   1.0000   1.0000   1.0000   1.0000
     1.0000   1.0000   1.0000   1.0000   1.0000   1.0000   1.0000   1.0000
     1.0000   1.0000   1.0000   1.0000   1.0000   1.0000   1.0000   1.0000
     1.0000   1.0000   1.0000   1.0000   1.0000   1.0000   1.0000   1.0000
     1.0000   1.0000   1.0000   1.0000   1.0000   1.0000   1.0000   1.0000
     1.0000   1.0000   1.0000   1.0000   1.0000   1.0000   1.0000   1.0000
     1.0000   1.0000   1.0000   1.0000   1.0000   1.0000   1.0000   1.0000
     1.0000   1.0000   1.0000   1.0000   1.0000   1.0000   1.0000   1.0000
     1.0000   1.0000   1.0000   1.0000   1.0000   1.0000   1.0000   1.0000
     1.0000   1.0000   1.0000   1.0000   1.0000   1.0000   1.0000   1.0000
     1.0000   1.0000   1.0000   1.0000   1.0000   1.0000   1.0000   1.0000
     1.0000   1.0000   1.0000   1.0000   1.0000   1.0000   1.0000   1.0000
     1.0000   1.0000   1.0000   1.0000   1.0000   1.0000   1.0000   1.0000
     1.0000   1.0000   1.0000   1.0000   1.0000   1.0000   1.0000   1.0000
     1.0000   1.0000   1.0000   1.0000   1.0000   1.0000   1.0000   1.0000
     1.0000   1.0000   0.9963   0.0033   0.0004   0.0000   0.0000   0.0000
     0.0000   0.0000   0.0000   0.0000   0.0000   0.0000   0.0000   0.0000
     0.0000   0.0000   0.0000   0.0000   0.0000   0.0000   0.0000   0.0000
     0.0000   0.0000   0.0000   0.0000   0.0000   0.0000   0.0000   0.0000
     0.0000   0.0000   0.0000   0.0000   0.0000   0.0000   0.0000   0.0000
     0.0000   0.0000   0.0000   0.0000   0.0000   0.0000   0.0000   0.0000
     0.0000   0.0000   0.0000   0.0000   0.0000   0.0000   0.0000   0.0000

          k = 0.0000-0.5774 0.0000 (  5314 PWs)   bands (ev):

   -79.6674 -79.5073 -79.3780 -74.6745 -74.6605 -74.5395 -45.4992 -45.4576
   -45.4561 -45.3178 -45.3156 -45.3052 -45.2549 -45.1566 -45.1547 -40.6687
   -40.6504 -40.6231 -40.6213 -40.6063 -40.6036 -40.5337 -40.4941 -40.4923
   -11.2474 -11.2168 -11.2009 -11.1958 -11.1877 -11.1816 -11.1707 -11.1587
   -11.1412 -11.1372 -11.1303 -11.1252 -11.1170 -11.1161 -11.1090 -11.1008
   -11.0906 -11.0875 -11.0808 -11.0762 -11.0745 -11.0725 -11.0688 -11.0628
   -11.0606 -11.0514 -11.0478 -11.0398 -11.0377 -11.0239  -7.3367  -7.2930
    -7.1202  -6.9591  -6.9150  -6.5485  -6.5291  -6.4332  -6.2937  -6.2086
    -6.1797  -6.1494  -6.0841  -6.0142  -5.9003  -5.8543  -5.7669  -5.6760
     1.0027   1.2255   1.2440   1.5390   1.5985   1.8093   5.0606   5.3262
     5.3803   5.4653   5.6841   5.6910   5.8268   5.8476   5.8763   6.0322
     6.0689   6.1249   6.2168   6.2951   6.4965   6.5811   6.6414   6.7375
     6.7764   6.8343   6.9999   7.0594   7.1581   7.2208   7.2789   7.4171
     7.4732   7.5155   7.6489   7.7398   7.7920   7.8198   7.9134   7.9689
     8.0691   8.1656   8.2211   8.2776   8.3607   8.3693   8.4918   8.5293
     8.5849   8.6430   8.7184   8.7799   8.9606   9.1022   9.1146   9.1521
     9.2066   9.2608   9.2877   9.3854   9.4433   9.5201   9.5876   9.8359
    10.0562  10.1904  10.3511  10.3766  10.4459  10.5955  10.8659  10.9100
    11.0179  11.0253  11.4805  12.0352  12.1097  12.2407  12.2958  12.3484
    12.4077  12.4278  12.6194  12.7208  13.2847  13.3513  13.5514  13.7018
    13.7870  14.3050  14.5636  15.1193  15.1662  15.3612  15.4368  15.4741
    15.5169  15.5624  15.6400  16.6510  16.6965  16.7781  16.8486  16.9363
    17.0015  17.0696  17.1317  17.2068  20.0714  20.2346  20.5061  21.0119
    21.1538  21.2338  21.7151  21.8742  22.0018  22.3047  22.3468  22.3649
    22.4820  22.5272  22.8613  22.9189  23.1422  23.2040  23.2657  23.3218

     occupation numbers 
     1.0000   1.0000   1.0000   1.0000   1.0000   1.0000   1.0000   1.0000
     1.0000   1.0000   1.0000   1.0000   1.0000   1.0000   1.0000   1.0000
     1.0000   1.0000   1.0000   1.0000   1.0000   1.0000   1.0000   1.0000
     1.0000   1.0000   1.0000   1.0000   1.0000   1.0000   1.0000   1.0000
     1.0000   1.0000   1.0000   1.0000   1.0000   1.0000   1.0000   1.0000
     1.0000   1.0000   1.0000   1.0000   1.0000   1.0000   1.0000   1.0000
     1.0000   1.0000   1.0000   1.0000   1.0000   1.0000   1.0000   1.0000
     1.0000   1.0000   1.0000   1.0000   1.0000   1.0000   1.0000   1.0000
     1.0000   1.0000   1.0000   1.0000   1.0000   1.0000   1.0000   1.0000
     1.0000   1.0000   1.0000   1.0000   1.0000   1.0000   1.0000   1.0000
     1.0000   1.0000   1.0000   1.0000   1.0000   1.0000   1.0000   1.0000
     1.0000   1.0000   1.0000   1.0000   1.0000   1.0000   1.0000   1.0000
     1.0000   1.0000   1.0000   1.0000   1.0000   1.0000   1.0000   1.0000
     1.0000   1.0000   1.0000   1.0000   1.0000   1.0000   1.0000   1.0000
     1.0000   1.0000   1.0000   1.0000   1.0000   1.0000   1.0000   1.0000
     1.0000   1.0000   1.0000   1.0000   1.0000   1.0000   1.0000   1.0000
     1.0000   1.0000   1.0000   1.0000   1.0000   1.0000   1.0000   1.0000
     1.0000   1.0000   1.0000   1.0000   1.0000   1.0000   1.0000   1.0000
     1.0000   1.0000   0.9983   0.0023   0.0002   0.0000   0.0000   0.0000
     0.0000   0.0000   0.0000   0.0000   0.0000   0.0000   0.0000   0.0000
     0.0000   0.0000   0.0000   0.0000   0.0000   0.0000   0.0000   0.0000
     0.0000   0.0000   0.0000   0.0000   0.0000   0.0000   0.0000   0.0000
     0.0000   0.0000   0.0000   0.0000   0.0000   0.0000   0.0000   0.0000
     0.0000   0.0000   0.0000   0.0000   0.0000   0.0000   0.0000   0.0000
     0.0000   0.0000   0.0000   0.0000   0.0000   0.0000   0.0000   0.0000

          k = 0.0000-0.5774 0.1336 (  5352 PWs)   bands (ev):

   -79.6689 -79.5088 -79.3795 -74.6758 -74.6618 -74.5408 -45.5130 -45.4610
   -45.4597 -45.3210 -45.3196 -45.3189 -45.2684 -45.1598 -45.1583 -40.6818
   -40.6632 -40.6269 -40.6239 -40.6086 -40.6079 -40.5463 -40.4970 -40.4957
   -11.2448 -11.2274 -11.2004 -11.1895 -11.1849 -11.1781 -11.1727 -11.1552
   -11.1528 -11.1427 -11.1319 -11.1216 -11.1174 -11.1138 -11.1098 -11.1009
   -11.0889 -11.0860 -11.0811 -11.0793 -11.0749 -11.0739 -11.0678 -11.0634
   -11.0612 -11.0513 -11.0485 -11.0401 -11.0371 -11.0258  -7.3357  -7.2796
    -7.1351  -7.0348  -6.8028  -6.5957  -6.5074  -6.4291  -6.3251  -6.2545
    -6.1513  -6.1234  -6.0530  -6.0377  -5.8920  -5.8579  -5.7724  -5.6767
     1.0261   1.1347   1.3446   1.4540   1.6714   1.7840   5.0565   5.3080
     5.3722   5.4619   5.6516   5.6648   5.7957   5.9374   5.9580   6.0410
     6.1022   6.1314   6.2099   6.3091   6.3432   6.4932   6.6137   6.7203
     6.7385   6.8799   6.9581   7.0278   7.1369   7.2096   7.3167   7.4068
     7.5050   7.5801   7.6683   7.7185   7.7800   7.8159   7.9123   8.0120
     8.0492   8.1159   8.2253   8.2763   8.3103   8.4291   8.4830   8.5149
     8.6096   8.7023   8.7573   8.8133   8.9291   9.0187   9.0962   9.1170
     9.2125   9.2304   9.2794   9.3443   9.3862   9.5173   9.5412   9.8669
    10.0500  10.1246  10.3426  10.4278  10.4626  10.6205  10.8685  10.9117
    10.9690  11.0186  11.4786  12.0312  12.0883  12.2283  12.2825  12.3293
    12.4039  12.4188  12.6170  12.7063  13.2748  13.3578  13.5513  13.6724
    13.7959  14.2736  14.6662  15.0112  15.0788  15.1579  15.3944  15.5041
    15.6010  15.7014  16.0134  16.4774  16.5527  16.6222  16.7669  16.8183
    17.0872  17.1355  17.2370  17.2862  20.0724  20.2132  20.5013  21.0373
    21.1244  21.2185  21.8621  21.9165  22.0740  22.2238  22.2771  22.3190
    22.5389  22.6349  22.7444  22.9474  23.0551  23.1917  23.2685  23.3236

     occupation numbers 
     1.0000   1.0000   1.0000   1.0000   1.0000   1.0000   1.0000   1.0000
     1.0000   1.0000   1.0000   1.0000   1.0000   1.0000   1.0000   1.0000
     1.0000   1.0000   1.0000   1.0000   1.0000   1.0000   1.0000   1.0000
     1.0000   1.0000   1.0000   1.0000   1.0000   1.0000   1.0000   1.0000
     1.0000   1.0000   1.0000   1.0000   1.0000   1.0000   1.0000   1.0000
     1.0000   1.0000   1.0000   1.0000   1.0000   1.0000   1.0000   1.0000
     1.0000   1.0000   1.0000   1.0000   1.0000   1.0000   1.0000   1.0000
     1.0000   1.0000   1.0000   1.0000   1.0000   1.0000   1.0000   1.0000
     1.0000   1.0000   1.0000   1.0000   1.0000   1.0000   1.0000   1.0000
     1.0000   1.0000   1.0000   1.0000   1.0000   1.0000   1.0000   1.0000
     1.0000   1.0000   1.0000   1.0000   1.0000   1.0000   1.0000   1.0000
     1.0000   1.0000   1.0000   1.0000   1.0000   1.0000   1.0000   1.0000
     1.0000   1.0000   1.0000   1.0000   1.0000   1.0000   1.0000   1.0000
     1.0000   1.0000   1.0000   1.0000   1.0000   1.0000   1.0000   1.0000
     1.0000   1.0000   1.0000   1.0000   1.0000   1.0000   1.0000   1.0000
     1.0000   1.0000   1.0000   1.0000   1.0000   1.0000   1.0000   1.0000
     1.0000   1.0000   1.0000   1.0000   1.0000   1.0000   1.0000   1.0000
     1.0000   1.0000   1.0000   1.0000   1.0000   1.0000   1.0000   1.0000
     1.0000   1.0000   0.9984   0.0026   0.0004   0.0000   0.0000   0.0000
     0.0000   0.0000   0.0000   0.0000   0.0000   0.0000   0.0000   0.0000
     0.0000   0.0000   0.0000   0.0000   0.0000   0.0000   0.0000   0.0000
     0.0000   0.0000   0.0000   0.0000   0.0000   0.0000   0.0000   0.0000
     0.0000   0.0000   0.0000   0.0000   0.0000   0.0000   0.0000   0.0000
     0.0000   0.0000   0.0000   0.0000   0.0000   0.0000   0.0000   0.0000
     0.0000   0.0000   0.0000   0.0000   0.0000   0.0000   0.0000   0.0000

          k = 0.2500 0.4330 0.0000 (  5358 PWs)   bands (ev):

   -79.6691 -79.5089 -79.3796 -74.6759 -74.6619 -74.5409 -45.5107 -45.4652
   -45.4599 -45.3250 -45.3197 -45.3167 -45.2663 -45.1638 -45.1587 -40.6797
   -40.6607 -40.6305 -40.6258 -40.6118 -40.6076 -40.5444 -40.5007 -40.4960
   -11.2311 -11.2248 -11.2169 -11.1998 -11.1875 -11.1813 -11.1708 -11.1549
   -11.1437 -11.1379 -11.1323 -11.1238 -11.1196 -11.1119 -11.1066 -11.0970
   -11.0917 -11.0851 -11.0806 -11.0787 -11.0752 -11.0718 -11.0694 -11.0647
   -11.0624 -11.0495 -11.0473 -11.0429 -11.0357 -11.0306  -7.4486  -7.1952
    -7.0920  -6.9380  -6.8628  -6.6752  -6.4218  -6.4177  -6.3703  -6.2635
    -6.1806  -6.1055  -6.0659  -6.0041  -5.9735  -5.8311  -5.7304  -5.6918
     1.1066   1.2158   1.2316   1.5364   1.5809   1.7398   5.1698   5.2417
     5.3634   5.4272   5.6061   5.6984   5.7674   5.8835   5.9593   5.9910
     6.1361   6.1943   6.2511   6.3248   6.4039   6.5432   6.5996   6.7729
     6.8085   6.8979   6.9529   7.0384   7.0832   7.2622   7.2993   7.3805
     7.4314   7.5275   7.5998   7.6838   7.7713   7.8280   7.8783   7.9401
     8.0510   8.1100   8.1996   8.2765   8.3289   8.4020   8.4814   8.5639
     8.6439   8.7085   8.7880   8.8203   8.8699   8.9162   9.0262   9.0944
     9.2339   9.2697   9.3061   9.3626   9.4056   9.4919   9.5853   9.9437
    10.0746  10.1060  10.3529  10.4124  10.5865  10.6274  10.7699  10.8681
    10.9538  11.2042  11.3840  12.0562  12.1215  12.1665  12.2728  12.3443
    12.4188  12.5160  12.5544  12.6767  13.2277  13.3679  13.5403  13.6881
    14.0253  14.1681  14.6990  14.7296  15.0050  15.2907  15.3243  15.4018
    15.7484  15.8249  16.1459  16.3742  16.5307  16.5959  16.7853  16.8320
    16.9816  17.0502  17.1210  17.3289  19.8633  20.4604  20.5202  20.9726
    21.2385  21.4013  21.6549  21.8093  21.8827  22.0664  22.3684  22.4603
    22.6368  22.7052  22.7592  22.9710  23.0048  23.0858  23.2513  23.2960

     occupation numbers 
     1.0000   1.0000   1.0000   1.0000   1.0000   1.0000   1.0000   1.0000
     1.0000   1.0000   1.0000   1.0000   1.0000   1.0000   1.0000   1.0000
     1.0000   1.0000   1.0000   1.0000   1.0000   1.0000   1.0000   1.0000
     1.0000   1.0000   1.0000   1.0000   1.0000   1.0000   1.0000   1.0000
     1.0000   1.0000   1.0000   1.0000   1.0000   1.0000   1.0000   1.0000
     1.0000   1.0000   1.0000   1.0000   1.0000   1.0000   1.0000   1.0000
     1.0000   1.0000   1.0000   1.0000   1.0000   1.0000   1.0000   1.0000
     1.0000   1.0000   1.0000   1.0000   1.0000   1.0000   1.0000   1.0000
     1.0000   1.0000   1.0000   1.0000   1.0000   1.0000   1.0000   1.0000
     1.0000   1.0000   1.0000   1.0000   1.0000   1.0000   1.0000   1.0000
     1.0000   1.0000   1.0000   1.0000   1.0000   1.0000   1.0000   1.0000
     1.0000   1.0000   1.0000   1.0000   1.0000   1.0000   1.0000   1.0000
     1.0000   1.0000   1.0000   1.0000   1.0000   1.0000   1.0000   1.0000
     1.0000   1.0000   1.0000   1.0000   1.0000   1.0000   1.0000   1.0000
     1.0000   1.0000   1.0000   1.0000   1.0000   1.0000   1.0000   1.0000
     1.0000   1.0000   1.0000   1.0000   1.0000   1.0000   1.0000   1.0000
     1.0000   1.0000   1.0000   1.0000   1.0000   1.0000   1.0000   1.0000
     1.0000   1.0000   1.0000   1.0000   1.0000   1.0000   1.0000   1.0000
     1.0000   1.0000   1.0000   0.0011   0.0001   0.0000   0.0000   0.0000
     0.0000   0.0000   0.0000   0.0000   0.0000   0.0000   0.0000   0.0000
     0.0000   0.0000   0.0000   0.0000   0.0000   0.0000   0.0000   0.0000
     0.0000   0.0000   0.0000   0.0000   0.0000   0.0000   0.0000   0.0000
     0.0000   0.0000   0.0000   0.0000   0.0000   0.0000   0.0000   0.0000
     0.0000   0.0000   0.0000   0.0000   0.0000   0.0000   0.0000   0.0000
     0.0000   0.0000   0.0000   0.0000   0.0000   0.0000   0.0000   0.0000

          k = 0.2500 0.4330 0.1336 (  5344 PWs)   bands (ev):

   -79.6685 -79.5084 -79.3791 -74.6754 -74.6614 -74.5405 -45.5081 -45.4619
   -45.4592 -45.3216 -45.3189 -45.3137 -45.2634 -45.1604 -45.1577 -40.6773
   -40.6591 -40.6277 -40.6241 -40.6088 -40.6065 -40.5415 -40.4975 -40.4950
   -11.2313 -11.2245 -11.2146 -11.2053 -11.1867 -11.1783 -11.1676 -11.1539
   -11.1486 -11.1393 -11.1329 -11.1210 -11.1194 -11.1114 -11.1057 -11.0963
   -11.0911 -11.0845 -11.0830 -11.0769 -11.0739 -11.0731 -11.0689 -11.0651
   -11.0621 -11.0489 -11.0478 -11.0427 -11.0356 -11.0304  -7.4357  -7.2523
    -7.0252  -6.9592  -6.8455  -6.6875  -6.4551  -6.4231  -6.3360  -6.2626
    -6.1709  -6.1212  -6.0919  -5.9906  -5.9468  -5.8368  -5.7336  -5.6937
     1.1040   1.1764   1.3179   1.4389   1.6387   1.7351   5.1657   5.2404
     5.3739   5.4414   5.6484   5.6963   5.7706   5.8404   5.9411   6.0319
     6.0990   6.2134   6.3053   6.3482   6.4110   6.5018   6.5509   6.7005
     6.7735   6.8715   6.9618   7.0250   7.1201   7.2439   7.3446   7.4100
     7.4824   7.5717   7.6421   7.7114   7.7341   7.8467   7.8724   7.9549
     8.0641   8.1153   8.1992   8.2554   8.3335   8.3990   8.4867   8.5637
     8.5913   8.6941   8.7582   8.7950   8.8933   8.9475   9.0686   9.0972
     9.1883   9.2921   9.3130   9.3519   9.4478   9.5002   9.5810   9.9096
    10.0042  10.1981  10.3297  10.4942  10.5375  10.6278  10.7819  10.8638
    10.9561  11.2277  11.3870  12.0522  12.1251  12.1700  12.2747  12.3513
    12.4190  12.5094  12.5569  12.6819  13.2340  13.3787  13.5453  13.6971
    14.0254  14.1792  14.7551  14.8139  14.9615  15.0794  15.2543  15.3423
    15.9513  16.0221  16.1494  16.3373  16.4642  16.5960  16.7832  16.8857
    16.9547  16.9964  17.1686  17.2355  19.8886  20.4057  20.5433  20.9671
    21.2605  21.4007  21.6957  21.7949  21.9962  22.1688  22.2405  22.4617
    22.5962  22.7225  22.7922  22.9084  22.9697  23.0939  23.2482  23.3294

     occupation numbers 
     1.0000   1.0000   1.0000   1.0000   1.0000   1.0000   1.0000   1.0000
     1.0000   1.0000   1.0000   1.0000   1.0000   1.0000   1.0000   1.0000
     1.0000   1.0000   1.0000   1.0000   1.0000   1.0000   1.0000   1.0000
     1.0000   1.0000   1.0000   1.0000   1.0000   1.0000   1.0000   1.0000
     1.0000   1.0000   1.0000   1.0000   1.0000   1.0000   1.0000   1.0000
     1.0000   1.0000   1.0000   1.0000   1.0000   1.0000   1.0000   1.0000
     1.0000   1.0000   1.0000   1.0000   1.0000   1.0000   1.0000   1.0000
     1.0000   1.0000   1.0000   1.0000   1.0000   1.0000   1.0000   1.0000
     1.0000   1.0000   1.0000   1.0000   1.0000   1.0000   1.0000   1.0000
     1.0000   1.0000   1.0000   1.0000   1.0000   1.0000   1.0000   1.0000
     1.0000   1.0000   1.0000   1.0000   1.0000   1.0000   1.0000   1.0000
     1.0000   1.0000   1.0000   1.0000   1.0000   1.0000   1.0000   1.0000
     1.0000   1.0000   1.0000   1.0000   1.0000   1.0000   1.0000   1.0000
     1.0000   1.0000   1.0000   1.0000   1.0000   1.0000   1.0000   1.0000
     1.0000   1.0000   1.0000   1.0000   1.0000   1.0000   1.0000   1.0000
     1.0000   1.0000   1.0000   1.0000   1.0000   1.0000   1.0000   1.0000
     1.0000   1.0000   1.0000   1.0000   1.0000   1.0000   1.0000   1.0000
     1.0000   1.0000   1.0000   1.0000   1.0000   1.0000   1.0000   1.0000
     1.0000   1.0000   1.0000   0.0013   0.0001   0.0000   0.0000   0.0000
     0.0000   0.0000   0.0000   0.0000   0.0000   0.0000   0.0000   0.0000
     0.0000   0.0000   0.0000   0.0000   0.0000   0.0000   0.0000   0.0000
     0.0000   0.0000   0.0000   0.0000   0.0000   0.0000   0.0000   0.0000
     0.0000   0.0000   0.0000   0.0000   0.0000   0.0000   0.0000   0.0000
     0.0000   0.0000   0.0000   0.0000   0.0000   0.0000   0.0000   0.0000
     0.0000   0.0000   0.0000   0.0000   0.0000   0.0000   0.0000   0.0000

          k =-0.2500 0.1443 0.1336 (  5360 PWs)   bands (ev):

   -79.6689 -79.5087 -79.3794 -74.6757 -74.6617 -74.5408 -45.5084 -45.4643
   -45.4613 -45.3242 -45.3204 -45.3144 -45.2642 -45.1630 -45.1594 -40.6775
   -40.6585 -40.6300 -40.6282 -40.6115 -40.6065 -40.5424 -40.4999 -40.4965
   -11.2485 -11.2323 -11.2235 -11.2074 -11.1893 -11.1817 -11.1676 -11.1549
   -11.1480 -11.1425 -11.1331 -11.1287 -11.1199 -11.1163 -11.1071 -11.0951
   -11.0859 -11.0833 -11.0798 -11.0777 -11.0720 -11.0701 -11.0662 -11.0627
   -11.0601 -11.0491 -11.0428 -11.0375 -11.0301 -11.0232  -7.7671  -7.5585
    -7.1522  -6.9577  -6.6128  -6.4501  -6.3981  -6.3401  -6.2383  -6.1846
    -6.1307  -6.1094  -6.0165  -5.9956  -5.8827  -5.8625  -5.6945  -5.6627
     0.9200   0.9819   1.3663   1.4651   2.0799   2.1993   5.0931   5.2045
     5.2302   5.4193   5.5233   5.5831   5.6432   5.7165   5.7445   5.8723
     5.9222   6.0139   6.0887   6.1596   6.2381   6.3513   6.4607   6.5340
     6.6411   6.7958   6.8848   6.9536   7.0326   7.1651   7.2601   7.3204
     7.3933   7.5426   7.5832   7.7527   7.7831   7.9025   7.9316   7.9727
     8.0887   8.1478   8.2411   8.2887   8.3785   8.4668   8.5077   8.5952
     8.6836   8.7169   8.7824   8.8376   8.9687   9.0341   9.0827   9.1536
     9.2072   9.2687   9.3058   9.3640   9.4495   9.5440   9.5802   9.9638
    10.0648  10.1238  10.3603  10.4775  10.5272  10.7164  10.8229  10.9415
    11.0871  11.3498  11.5005  12.0193  12.0886  12.1612  12.2754  12.3446
    12.3938  12.4236  12.4958  12.6319  13.2336  13.3118  13.6323  13.8035
    14.1116  14.3531  14.8824  15.0294  15.1382  15.4908  15.7027  15.8154
    15.9447  16.1585  16.4219  16.6899  16.7630  16.7960  16.8016  16.9714
    17.0924  17.2461  17.3521  17.4224  19.0326  19.7324  20.1926  20.5557
    20.9355  21.2243  21.2563  21.4725  21.6604  21.7365  22.1679  22.4035
    22.4958  22.7070  22.7564  22.8576  22.8979  23.1899  23.3374  23.3975

     occupation numbers 
     1.0000   1.0000   1.0000   1.0000   1.0000   1.0000   1.0000   1.0000
     1.0000   1.0000   1.0000   1.0000   1.0000   1.0000   1.0000   1.0000
     1.0000   1.0000   1.0000   1.0000   1.0000   1.0000   1.0000   1.0000
     1.0000   1.0000   1.0000   1.0000   1.0000   1.0000   1.0000   1.0000
     1.0000   1.0000   1.0000   1.0000   1.0000   1.0000   1.0000   1.0000
     1.0000   1.0000   1.0000   1.0000   1.0000   1.0000   1.0000   1.0000
     1.0000   1.0000   1.0000   1.0000   1.0000   1.0000   1.0000   1.0000
     1.0000   1.0000   1.0000   1.0000   1.0000   1.0000   1.0000   1.0000
     1.0000   1.0000   1.0000   1.0000   1.0000   1.0000   1.0000   1.0000
     1.0000   1.0000   1.0000   1.0000   1.0000   1.0000   1.0000   1.0000
     1.0000   1.0000   1.0000   1.0000   1.0000   1.0000   1.0000   1.0000
     1.0000   1.0000   1.0000   1.0000   1.0000   1.0000   1.0000   1.0000
     1.0000   1.0000   1.0000   1.0000   1.0000   1.0000   1.0000   1.0000
     1.0000   1.0000   1.0000   1.0000   1.0000   1.0000   1.0000   1.0000
     1.0000   1.0000   1.0000   1.0000   1.0000   1.0000   1.0000   1.0000
     1.0000   1.0000   1.0000   1.0000   1.0000   1.0000   1.0000   1.0000
     1.0000   1.0000   1.0000   1.0000   1.0000   1.0000   1.0000   1.0000
     1.0000   1.0000   1.0000   1.0000   1.0000   1.0000   1.0000   1.0000
     1.0000   1.0000   0.9968   0.0038   0.0004   0.0000   0.0000   0.0000
     0.0000   0.0000   0.0000   0.0000   0.0000   0.0000   0.0000   0.0000
     0.0000   0.0000   0.0000   0.0000   0.0000   0.0000   0.0000   0.0000
     0.0000   0.0000   0.0000   0.0000   0.0000   0.0000   0.0000   0.0000
     0.0000   0.0000   0.0000   0.0000   0.0000   0.0000   0.0000   0.0000
     0.0000   0.0000   0.0000   0.0000   0.0000   0.0000   0.0000   0.0000
     0.0000   0.0000   0.0000   0.0000   0.0000   0.0000   0.0000   0.0000

          k = 0.2500-0.4330-0.1336 (  5344 PWs)   bands (ev):

   -79.6686 -79.5084 -79.3791 -74.6754 -74.6614 -74.5405 -45.5082 -45.4619
   -45.4592 -45.3216 -45.3189 -45.3137 -45.2633 -45.1604 -45.1577 -40.6772
   -40.6591 -40.6276 -40.6241 -40.6088 -40.6065 -40.5415 -40.4975 -40.4950
   -11.2314 -11.2241 -11.2153 -11.2046 -11.1872 -11.1783 -11.1662 -11.1554
   -11.1488 -11.1390 -11.1314 -11.1231 -11.1187 -11.1104 -11.1066 -11.0956
   -11.0920 -11.0847 -11.0812 -11.0783 -11.0746 -11.0715 -11.0697 -11.0654
   -11.0618 -11.0490 -11.0477 -11.0428 -11.0356 -11.0303  -7.4357  -7.2521
    -7.0252  -6.9622  -6.8390  -6.6936  -6.4480  -6.4224  -6.3514  -6.2390
    -6.1873  -6.1243  -6.0871  -5.9904  -5.9448  -5.8384  -5.7329  -5.6940
     1.1040   1.1767   1.3171   1.4398   1.6381   1.7353   5.1646   5.2450
     5.3745   5.4389   5.6420   5.7021   5.7683   5.8514   5.9737   6.0010
     6.0652   6.2092   6.2995   6.3403   6.4292   6.5003   6.5770   6.7224
     6.7886   6.8504   6.9207   7.0812   7.0969   7.2336   7.3869   7.4389
     7.4534   7.5452   7.6117   7.6338   7.7945   7.8427   7.9117   7.9931
     8.0401   8.0805   8.2135   8.2563   8.3378   8.4447   8.4837   8.5559
     8.6040   8.6566   8.7310   8.7816   8.8939   8.9567   9.0559   9.1348
     9.1970   9.2602   9.3191   9.3755   9.4381   9.4960   9.5790   9.9247
    10.0015  10.2056  10.3330  10.4200  10.5747  10.6492  10.7706  10.8703
    10.9507  11.2291  11.3843  12.0628  12.1244  12.1704  12.2753  12.3472
    12.4205  12.5085  12.5609  12.6790  13.2368  13.3723  13.5519  13.6929
    14.0251  14.1761  14.7644  14.8124  14.9677  15.0502  15.2678  15.3442
    15.9715  16.0022  16.1544  16.3388  16.4688  16.5776  16.8205  16.8667
    16.9406  17.0177  17.1277  17.2609  19.8947  20.3988  20.5121  21.0200
    21.2615  21.3975  21.6792  21.7936  22.0304  22.1068  22.2667  22.4784
    22.6087  22.7164  22.7733  22.8709  22.9863  23.0922  23.2415  23.3092

     occupation numbers 
     1.0000   1.0000   1.0000   1.0000   1.0000   1.0000   1.0000   1.0000
     1.0000   1.0000   1.0000   1.0000   1.0000   1.0000   1.0000   1.0000
     1.0000   1.0000   1.0000   1.0000   1.0000   1.0000   1.0000   1.0000
     1.0000   1.0000   1.0000   1.0000   1.0000   1.0000   1.0000   1.0000
     1.0000   1.0000   1.0000   1.0000   1.0000   1.0000   1.0000   1.0000
     1.0000   1.0000   1.0000   1.0000   1.0000   1.0000   1.0000   1.0000
     1.0000   1.0000   1.0000   1.0000   1.0000   1.0000   1.0000   1.0000
     1.0000   1.0000   1.0000   1.0000   1.0000   1.0000   1.0000   1.0000
     1.0000   1.0000   1.0000   1.0000   1.0000   1.0000   1.0000   1.0000
     1.0000   1.0000   1.0000   1.0000   1.0000   1.0000   1.0000   1.0000
     1.0000   1.0000   1.0000   1.0000   1.0000   1.0000   1.0000   1.0000
     1.0000   1.0000   1.0000   1.0000   1.0000   1.0000   1.0000   1.0000
     1.0000   1.0000   1.0000   1.0000   1.0000   1.0000   1.0000   1.0000
     1.0000   1.0000   1.0000   1.0000   1.0000   1.0000   1.0000   1.0000
     1.0000   1.0000   1.0000   1.0000   1.0000   1.0000   1.0000   1.0000
     1.0000   1.0000   1.0000   1.0000   1.0000   1.0000   1.0000   1.0000
     1.0000   1.0000   1.0000   1.0000   1.0000   1.0000   1.0000   1.0000
     1.0000   1.0000   1.0000   1.0000   1.0000   1.0000   1.0000   1.0000
     1.0000   1.0000   1.0000   0.0009   0.0001   0.0000   0.0000   0.0000
     0.0000   0.0000   0.0000   0.0000   0.0000   0.0000   0.0000   0.0000
     0.0000   0.0000   0.0000   0.0000   0.0000   0.0000   0.0000   0.0000
     0.0000   0.0000   0.0000   0.0000   0.0000   0.0000   0.0000   0.0000
     0.0000   0.0000   0.0000   0.0000   0.0000   0.0000   0.0000   0.0000
     0.0000   0.0000   0.0000   0.0000   0.0000   0.0000   0.0000   0.0000
     0.0000   0.0000   0.0000   0.0000   0.0000   0.0000   0.0000   0.0000

 ------ SPIN DOWN ----------


          k = 0.0000 0.0000 0.0000 (  5411 PWs)   bands (ev):

   -79.6679 -79.5104 -79.3805 -74.6806 -74.6645 -74.5441 -45.5145 -45.4688
   -45.4687 -45.3311 -45.3311 -45.3235 -45.2722 -45.1696 -45.1696 -40.6900
   -40.6666 -40.6396 -40.6396 -40.6197 -40.6197 -40.5529 -40.5084 -40.5084
   -11.2533 -11.2533 -11.2162 -11.2162 -11.1969 -11.1969 -11.1655 -11.1520
   -11.1409 -11.1409 -11.1369 -11.1369 -11.1274 -11.1274 -11.1064 -11.0908
   -11.0816 -11.0816 -11.0748 -11.0748 -11.0701 -11.0701 -11.0639 -11.0603
   -11.0603 -11.0524 -11.0359 -11.0359 -11.0231 -11.0231  -7.9801  -7.6025
    -7.5075  -6.7498  -6.7002  -6.3019  -6.3018  -6.1796  -6.1778  -6.1777
    -6.0761  -6.0761  -5.9812  -5.9811  -5.8271  -5.8271  -5.6587  -5.6587
     0.8213   1.0585   1.1366   1.9080   2.0414   2.7919   4.9476   4.9476
     5.0671   5.4412   5.4412   5.5440   5.5440   5.5478   5.7315   5.7380
     5.7380   5.9530   6.0121   6.0122   6.2034   6.2035   6.2696   6.4291
     6.4292   6.4296   6.5239   6.7359   6.7360   7.0203   7.0203   7.1765
     7.3378   7.6124   7.6125   7.7241   7.8484   7.8484   7.9648   7.9648
     8.1570   8.2926   8.3438   8.3439   8.5099   8.5099   8.5264   8.6451
     8.6633   8.6634   8.8252   8.8252   8.9757   8.9757   9.3221   9.3222
     9.3720   9.3721   9.3724   9.4298   9.4299   9.7737   9.7737  10.0964
    10.1893  10.1893  10.2606  10.4312  10.5302  10.6646  10.7393  10.8827
    10.8827  11.5263  11.5264  12.0495  12.0495  12.2732  12.2760  12.2760
    12.3398  12.3608  12.4347  12.4347  13.2087  13.2087  13.8357  13.8357
    14.3852  14.3852  15.0668  15.1817  15.2857  15.3326  16.3810  16.3810
    16.5156  16.5157  16.5599  16.5600  16.8543  16.9136  17.1076  17.1077
    17.1842  17.1842  17.5952  17.5952  18.3004  19.6027  19.8236  19.9923
    20.6981  20.6981  20.9814  21.0592  21.7012  21.7013  21.8081  21.8084
    22.1330  22.1329  22.8658  23.0395  23.0561  23.0590  23.2059  23.2242

     occupation numbers 
     1.0000   1.0000   1.0000   1.0000   1.0000   1.0000   1.0000   1.0000
     1.0000   1.0000   1.0000   1.0000   1.0000   1.0000   1.0000   1.0000
     1.0000   1.0000   1.0000   1.0000   1.0000   1.0000   1.0000   1.0000
     1.0000   1.0000   1.0000   1.0000   1.0000   1.0000   1.0000   1.0000
     1.0000   1.0000   1.0000   1.0000   1.0000   1.0000   1.0000   1.0000
     1.0000   1.0000   1.0000   1.0000   1.0000   1.0000   1.0000   1.0000
     1.0000   1.0000   1.0000   1.0000   1.0000   1.0000   1.0000   1.0000
     1.0000   1.0000   1.0000   1.0000   1.0000   1.0000   1.0000   1.0000
     1.0000   1.0000   1.0000   1.0000   1.0000   1.0000   1.0000   1.0000
     1.0000   1.0000   1.0000   1.0000   1.0000   1.0000   1.0000   1.0000
     1.0000   1.0000   1.0000   1.0000   1.0000   1.0000   1.0000   1.0000
     1.0000   1.0000   1.0000   1.0000   1.0000   1.0000   1.0000   1.0000
     1.0000   1.0000   1.0000   1.0000   1.0000   1.0000   1.0000   1.0000
     1.0000   1.0000   1.0000   1.0000   1.0000   1.0000   1.0000   1.0000
     1.0000   1.0000   1.0000   1.0000   1.0000   1.0000   1.0000   1.0000
     1.0000   1.0000   1.0000   1.0000   1.0000   1.0000   1.0000   1.0000
     1.0000   1.0000   1.0000   1.0000   1.0000   1.0000   1.0000   1.0000
     1.0000   1.0000   1.0000   1.0000   1.0000   1.0000   1.0000   1.0000
     1.0000   0.9930   0.9930   0.0014   0.0014   0.0000   0.0000   0.0000
     0.0000   0.0000   0.0000   0.0000   0.0000   0.0000   0.0000   0.0000
     0.0000   0.0000   0.0000   0.0000   0.0000   0.0000   0.0000   0.0000
     0.0000   0.0000   0.0000   0.0000   0.0000   0.0000   0.0000   0.0000
     0.0000   0.0000   0.0000   0.0000   0.0000   0.0000   0.0000   0.0000
     0.0000   0.0000   0.0000   0.0000   0.0000   0.0000   0.0000   0.0000
     0.0000   0.0000   0.0000   0.0000   0.0000   0.0000   0.0000   0.0000

          k = 0.0000 0.0000 0.1336 (  5394 PWs)   bands (ev):

   -79.6670 -79.5095 -79.3796 -74.6798 -74.6637 -74.5434 -45.5063 -45.4669
   -45.4669 -45.3295 -45.3295 -45.3170 -45.2625 -45.1676 -45.1676 -40.6818
   -40.6599 -40.6377 -40.6377 -40.6185 -40.6185 -40.5447 -40.5064 -40.5063
   -11.2493 -11.2492 -11.2297 -11.2297 -11.1779 -11.1778 -11.1652 -11.1545
   -11.1539 -11.1519 -11.1344 -11.1334 -11.1268 -11.1262 -11.1028 -11.0934
   -11.0805 -11.0796 -11.0766 -11.0753 -11.0683 -11.0678 -11.0630 -11.0616
   -11.0606 -11.0523 -11.0339 -11.0336 -11.0247 -11.0246  -7.9556  -7.7373
    -7.2977  -7.0117  -6.4961  -6.3019  -6.3018  -6.2210  -6.1791  -6.1788
    -6.0710  -6.0702  -5.9881  -5.9874  -5.8240  -5.8238  -5.6595  -5.6595
     0.8445   0.9461   1.3252   1.6164   2.3522   2.6675   4.9746   4.9748
     5.0944   5.3262   5.3268   5.4024   5.5795   5.6289   5.7107   5.8372
     5.9170   5.9785   5.9892   6.0904   6.2707   6.2968   6.3079   6.4016
     6.4068   6.4565   6.5259   6.5996   6.6381   6.8707   7.0149   7.0381
     7.5662   7.6063   7.6427   7.7442   7.7719   7.7797   7.9694   8.0542
     8.1300   8.3086   8.3237   8.4206   8.4342   8.5236   8.5325   8.7171
     8.7353   8.8508   8.8680   8.8777   8.9924   9.0569   9.1690   9.1699
     9.2281   9.2673   9.3135   9.5346   9.5443   9.7303   9.7377  10.1384
    10.2206  10.2355  10.2861  10.3856  10.5255  10.6626  10.8080  10.8829
    10.8950  11.5196  11.5344  12.0523  12.0621  12.2750  12.2855  12.2880
    12.3611  12.3747  12.4325  12.4351  13.2080  13.2092  13.8488  13.8514
    14.3839  14.3848  14.7418  14.8095  15.8876  15.9143  16.3762  16.3795
    16.4495  16.4552  16.5581  16.5888  16.6993  16.7002  16.9059  16.9103
    17.3556  17.3619  17.5470  17.5505  18.4915  19.2856  19.8920  20.3915
    20.7094  20.8007  20.8025  21.0904  21.2154  21.2229  22.2214  22.2682
    22.4393  22.4751  22.7051  22.7301  22.8794  23.0195  23.0374  23.0866

     occupation numbers 
     1.0000   1.0000   1.0000   1.0000   1.0000   1.0000   1.0000   1.0000
     1.0000   1.0000   1.0000   1.0000   1.0000   1.0000   1.0000   1.0000
     1.0000   1.0000   1.0000   1.0000   1.0000   1.0000   1.0000   1.0000
     1.0000   1.0000   1.0000   1.0000   1.0000   1.0000   1.0000   1.0000
     1.0000   1.0000   1.0000   1.0000   1.0000   1.0000   1.0000   1.0000
     1.0000   1.0000   1.0000   1.0000   1.0000   1.0000   1.0000   1.0000
     1.0000   1.0000   1.0000   1.0000   1.0000   1.0000   1.0000   1.0000
     1.0000   1.0000   1.0000   1.0000   1.0000   1.0000   1.0000   1.0000
     1.0000   1.0000   1.0000   1.0000   1.0000   1.0000   1.0000   1.0000
     1.0000   1.0000   1.0000   1.0000   1.0000   1.0000   1.0000   1.0000
     1.0000   1.0000   1.0000   1.0000   1.0000   1.0000   1.0000   1.0000
     1.0000   1.0000   1.0000   1.0000   1.0000   1.0000   1.0000   1.0000
     1.0000   1.0000   1.0000   1.0000   1.0000   1.0000   1.0000   1.0000
     1.0000   1.0000   1.0000   1.0000   1.0000   1.0000   1.0000   1.0000
     1.0000   1.0000   1.0000   1.0000   1.0000   1.0000   1.0000   1.0000
     1.0000   1.0000   1.0000   1.0000   1.0000   1.0000   1.0000   1.0000
     1.0000   1.0000   1.0000   1.0000   1.0000   1.0000   1.0000   1.0000
     1.0000   1.0000   1.0000   1.0000   1.0000   1.0000   1.0000   1.0000
     1.0000   0.9942   0.9912   0.0013   0.0009   0.0000   0.0000   0.0000
     0.0000   0.0000   0.0000   0.0000   0.0000   0.0000   0.0000   0.0000
     0.0000   0.0000   0.0000   0.0000   0.0000   0.0000   0.0000   0.0000
     0.0000   0.0000   0.0000   0.0000   0.0000   0.0000   0.0000   0.0000
     0.0000   0.0000   0.0000   0.0000   0.0000   0.0000   0.0000   0.0000
     0.0000   0.0000   0.0000   0.0000   0.0000   0.0000   0.0000   0.0000
     0.0000   0.0000   0.0000   0.0000   0.0000   0.0000   0.0000   0.0000

          k = 0.0000 0.2887 0.0000 (  5353 PWs)   bands (ev):

   -79.6657 -79.5082 -79.3783 -74.6787 -74.6626 -74.5422 -45.5048 -45.4613
   -45.4562 -45.3234 -45.3181 -45.3143 -45.2612 -45.1620 -45.1565 -40.6811
   -40.6580 -40.6330 -40.6285 -40.6123 -40.6066 -40.5431 -40.5012 -40.4961
   -11.2444 -11.2318 -11.2278 -11.2162 -11.1734 -11.1688 -11.1660 -11.1636
   -11.1589 -11.1487 -11.1296 -11.1269 -11.1201 -11.1169 -11.1059 -11.0950
   -11.0847 -11.0820 -11.0800 -11.0776 -11.0727 -11.0702 -11.0656 -11.0628
   -11.0596 -11.0507 -11.0410 -11.0351 -11.0318 -11.0265  -7.7878  -7.4425
    -7.3418  -6.7840  -6.6727  -6.4585  -6.4000  -6.3540  -6.2411  -6.1864
    -6.1221  -6.1119  -6.0119  -5.9946  -5.8822  -5.8585  -5.6965  -5.6650
     0.9007   1.0637   1.1815   1.7105   1.8742   2.2845   5.1031   5.1859
     5.2357   5.3765   5.4702   5.6317   5.6631   5.7219   5.7830   5.8395
     5.9775   6.0421   6.1298   6.1809   6.2654   6.3581   6.4152   6.4492
     6.6449   6.7052   6.8858   7.0078   7.0608   7.1783   7.2579   7.3299
     7.4524   7.5358   7.5871   7.6559   7.7942   7.8394   7.8737   7.9849
     8.1498   8.2048   8.2503   8.3150   8.3693   8.4718   8.5307   8.6383
     8.6754   8.7265   8.8111   8.8670   8.9528   9.0105   9.0482   9.1611
     9.2026   9.2351   9.2524   9.4222   9.4530   9.4970   9.5783   9.9586
    10.0881  10.1907  10.3449  10.4590  10.5622  10.6858  10.8085  10.9479
    11.0575  11.3756  11.5089  12.0251  12.0851  12.1642  12.2736  12.3393
    12.3920  12.4178  12.4978  12.6314  13.2278  13.3115  13.6391  13.8135
    14.1091  14.3436  14.8376  15.1582  15.1887  15.4080  15.5394  15.9130
    15.9785  16.0798  16.5370  16.5902  16.6789  16.7605  16.8620  17.0874
    17.1575  17.2256  17.3164  17.4116  18.9597  19.9446  20.1547  20.3651
    21.0482  21.2175  21.2669  21.3823  21.6981  21.9889  22.1251  22.2278
    22.3573  22.5512  22.7965  23.0441  23.0732  23.2177  23.3133  23.3652

     occupation numbers 
     1.0000   1.0000   1.0000   1.0000   1.0000   1.0000   1.0000   1.0000
     1.0000   1.0000   1.0000   1.0000   1.0000   1.0000   1.0000   1.0000
     1.0000   1.0000   1.0000   1.0000   1.0000   1.0000   1.0000   1.0000
     1.0000   1.0000   1.0000   1.0000   1.0000   1.0000   1.0000   1.0000
     1.0000   1.0000   1.0000   1.0000   1.0000   1.0000   1.0000   1.0000
     1.0000   1.0000   1.0000   1.0000   1.0000   1.0000   1.0000   1.0000
     1.0000   1.0000   1.0000   1.0000   1.0000   1.0000   1.0000   1.0000
     1.0000   1.0000   1.0000   1.0000   1.0000   1.0000   1.0000   1.0000
     1.0000   1.0000   1.0000   1.0000   1.0000   1.0000   1.0000   1.0000
     1.0000   1.0000   1.0000   1.0000   1.0000   1.0000   1.0000   1.0000
     1.0000   1.0000   1.0000   1.0000   1.0000   1.0000   1.0000   1.0000
     1.0000   1.0000   1.0000   1.0000   1.0000   1.0000   1.0000   1.0000
     1.0000   1.0000   1.0000   1.0000   1.0000   1.0000   1.0000   1.0000
     1.0000   1.0000   1.0000   1.0000   1.0000   1.0000   1.0000   1.0000
     1.0000   1.0000   1.0000   1.0000   1.0000   1.0000   1.0000   1.0000
     1.0000   1.0000   1.0000   1.0000   1.0000   1.0000   1.0000   1.0000
     1.0000   1.0000   1.0000   1.0000   1.0000   1.0000   1.0000   1.0000
     1.0000   1.0000   1.0000   1.0000   1.0000   1.0000   1.0000   1.0000
     1.0000   1.0000   0.9958   0.0032   0.0004   0.0000   0.0000   0.0000
     0.0000   0.0000   0.0000   0.0000   0.0000   0.0000   0.0000   0.0000
     0.0000   0.0000   0.0000   0.0000   0.0000   0.0000   0.0000   0.0000
     0.0000   0.0000   0.0000   0.0000   0.0000   0.0000   0.0000   0.0000
     0.0000   0.0000   0.0000   0.0000   0.0000   0.0000   0.0000   0.0000
     0.0000   0.0000   0.0000   0.0000   0.0000   0.0000   0.0000   0.0000
     0.0000   0.0000   0.0000   0.0000   0.0000   0.0000   0.0000   0.0000

          k = 0.0000 0.2887 0.1336 (  5360 PWs)   bands (ev):

   -79.6659 -79.5084 -79.3785 -74.6789 -74.6628 -74.5424 -45.5052 -45.4614
   -45.4583 -45.3238 -45.3201 -45.3145 -45.2626 -45.1622 -45.1588 -40.6807
   -40.6589 -40.6329 -40.6305 -40.6129 -40.6087 -40.5441 -40.5014 -40.4982
   -11.2489 -11.2306 -11.2191 -11.2105 -11.1941 -11.1805 -11.1653 -11.1529
   -11.1485 -11.1434 -11.1329 -11.1272 -11.1206 -11.1187 -11.1050 -11.0966
   -11.0845 -11.0825 -11.0794 -11.0780 -11.0743 -11.0681 -11.0663 -11.0631
   -11.0598 -11.0508 -11.0416 -11.0367 -11.0317 -11.0244  -7.7673  -7.5534
    -7.1790  -6.9031  -6.6747  -6.4198  -6.3890  -6.3256  -6.2515  -6.2201
    -6.1060  -6.0798  -6.0219  -6.0119  -5.8907  -5.8583  -5.6946  -5.6647
     0.9005   1.0380   1.2412   1.5994   1.9821   2.2534   5.0788   5.2151
     5.2430   5.3819   5.5094   5.6059   5.6380   5.6936   5.7957   5.8823
     5.9521   6.0478   6.1065   6.1281   6.2441   6.3244   6.4063   6.5376
     6.6327   6.7632   6.8614   6.9626   7.0639   7.2125   7.2347   7.3303
     7.4680   7.5196   7.5919   7.6924   7.7566   7.8713   7.9190   7.9656
     8.0917   8.1880   8.2710   8.3130   8.3706   8.4607   8.5144   8.5880
     8.7174   8.7495   8.7919   8.8502   8.9464   9.0074   9.0779   9.0978
     9.2052   9.2505   9.3060   9.4111   9.4307   9.5211   9.5687  10.0036
    10.0733  10.1675  10.3199  10.4508  10.5938  10.6766  10.8375  10.9536
    11.0547  11.3628  11.5061  12.0215  12.0858  12.1595  12.2777  12.3347
    12.3954  12.4210  12.4950  12.6385  13.2299  13.3031  13.6221  13.8005
    14.1108  14.3453  14.7642  15.0941  15.3427  15.4049  15.4870  15.9171
    16.0099  16.3109  16.3695  16.5046  16.8108  16.8244  16.8958  16.9445
    17.0675  17.1870  17.3687  17.4104  19.0473  19.7387  20.1095  20.6264
    20.9981  21.2385  21.3178  21.3775  21.4761  21.8112  22.2898  22.4032
    22.5271  22.7074  22.7465  22.8414  22.9328  23.1970  23.3289  23.3548

     occupation numbers 
     1.0000   1.0000   1.0000   1.0000   1.0000   1.0000   1.0000   1.0000
     1.0000   1.0000   1.0000   1.0000   1.0000   1.0000   1.0000   1.0000
     1.0000   1.0000   1.0000   1.0000   1.0000   1.0000   1.0000   1.0000
     1.0000   1.0000   1.0000   1.0000   1.0000   1.0000   1.0000   1.0000
     1.0000   1.0000   1.0000   1.0000   1.0000   1.0000   1.0000   1.0000
     1.0000   1.0000   1.0000   1.0000   1.0000   1.0000   1.0000   1.0000
     1.0000   1.0000   1.0000   1.0000   1.0000   1.0000   1.0000   1.0000
     1.0000   1.0000   1.0000   1.0000   1.0000   1.0000   1.0000   1.0000
     1.0000   1.0000   1.0000   1.0000   1.0000   1.0000   1.0000   1.0000
     1.0000   1.0000   1.0000   1.0000   1.0000   1.0000   1.0000   1.0000
     1.0000   1.0000   1.0000   1.0000   1.0000   1.0000   1.0000   1.0000
     1.0000   1.0000   1.0000   1.0000   1.0000   1.0000   1.0000   1.0000
     1.0000   1.0000   1.0000   1.0000   1.0000   1.0000   1.0000   1.0000
     1.0000   1.0000   1.0000   1.0000   1.0000   1.0000   1.0000   1.0000
     1.0000   1.0000   1.0000   1.0000   1.0000   1.0000   1.0000   1.0000
     1.0000   1.0000   1.0000   1.0000   1.0000   1.0000   1.0000   1.0000
     1.0000   1.0000   1.0000   1.0000   1.0000   1.0000   1.0000   1.0000
     1.0000   1.0000   1.0000   1.0000   1.0000   1.0000   1.0000   1.0000
     1.0000   1.0000   0.9962   0.0036   0.0004   0.0000   0.0000   0.0000
     0.0000   0.0000   0.0000   0.0000   0.0000   0.0000   0.0000   0.0000
     0.0000   0.0000   0.0000   0.0000   0.0000   0.0000   0.0000   0.0000
     0.0000   0.0000   0.0000   0.0000   0.0000   0.0000   0.0000   0.0000
     0.0000   0.0000   0.0000   0.0000   0.0000   0.0000   0.0000   0.0000
     0.0000   0.0000   0.0000   0.0000   0.0000   0.0000   0.0000   0.0000
     0.0000   0.0000   0.0000   0.0000   0.0000   0.0000   0.0000   0.0000

          k = 0.0000-0.5774 0.0000 (  5314 PWs)   bands (ev):

   -79.6645 -79.5070 -79.3771 -74.6776 -74.6616 -74.5412 -45.4960 -45.4548
   -45.4533 -45.3173 -45.3151 -45.3052 -45.2535 -45.1559 -45.1540 -40.6718
[...]
     1.0000   1.0000   1.0000   1.0000   1.0000   1.0000   1.0000   1.0000
     1.0000   1.0000   0.9983   0.0028   0.0004   0.0000   0.0000   0.0000
     0.0000   0.0000   0.0000   0.0000   0.0000   0.0000   0.0000   0.0000
     0.0000   0.0000   0.0000   0.0000   0.0000   0.0000   0.0000   0.0000
     0.0000   0.0000   0.0000   0.0000   0.0000   0.0000   0.0000   0.0000
     0.0000   0.0000   0.0000   0.0000   0.0000   0.0000   0.0000   0.0000
     0.0000   0.0000   0.0000   0.0000   0.0000   0.0000   0.0000   0.0000
     0.0000   0.0000   0.0000   0.0000   0.0000   0.0000   0.0000   0.0000

          k = 0.2500 0.4330 0.0000 (  5358 PWs)   bands (ev):

   -79.6661 -79.5086 -79.3787 -74.6790 -74.6630 -74.5426 -45.5075 -45.4624
   -45.4571 -45.3245 -45.3192 -45.3167 -45.2649 -45.1631 -45.1580 -40.6827
   -40.6616 -40.6335 -40.6287 -40.6131 -40.6088 -40.5462 -40.5023 -40.4976
   -11.2300 -11.2243 -11.2174 -11.1998 -11.1873 -11.1816 -11.1709 -11.1548
   -11.1436 -11.1382 -11.1315 -11.1237 -11.1199 -11.1122 -11.1061 -11.0974
   -11.0916 -11.0848 -11.0803 -11.0786 -11.0748 -11.0720 -11.0697 -11.0656
   -11.0611 -11.0502 -11.0468 -11.0414 -11.0373 -11.0322  -7.4476  -7.1945
    -7.0922  -6.9370  -6.8630  -6.6760  -6.4208  -6.4167  -6.3695  -6.2629
    -6.1812  -6.1043  -6.0649  -6.0041  -5.9743  -5.8323  -5.7316  -5.6931
     1.1077   1.2156   1.2312   1.5364   1.5815   1.7391   5.1712   5.2429
     5.3645   5.4280   5.6063   5.6994   5.7677   5.8835   5.9598   5.9909
     6.1366   6.1945   6.2519   6.3256   6.4035   6.5433   6.5999   6.7735
     6.8091   6.8981   6.9530   7.0388   7.0837   7.2621   7.2994   7.3810
     7.4316   7.5280   7.5997   7.6843   7.7716   7.8281   7.8787   7.9398
     8.0514   8.1102   8.1998   8.2766   8.3295   8.4021   8.4814   8.5638
     8.6442   8.7090   8.7883   8.8203   8.8699   8.9161   9.0258   9.0940
     9.2340   9.2700   9.3064   9.3628   9.4061   9.4926   9.5859   9.9446
    10.0747  10.1063  10.3530  10.4122  10.5863  10.6279  10.7711  10.8696
    10.9548  11.2057  11.3854  12.0543  12.1197  12.1646  12.2713  12.3431
    12.4178  12.5146  12.5530  12.6752  13.2256  13.3658  13.5388  13.6865
    14.0236  14.1661  14.6993  14.7297  15.0051  15.2911  15.3244  15.4011
    15.7486  15.8251  16.1460  16.3744  16.5309  16.5962  16.7855  16.8322
    16.9817  17.0505  17.1203  17.3288  19.8650  20.4617  20.5214  20.9717
    21.2376  21.4006  21.6554  21.8097  21.8825  22.0664  22.3686  22.4604
    22.6368  22.7053  22.7600  22.9714  23.0045  23.0862  23.2503  23.2951

     occupation numbers 
     1.0000   1.0000   1.0000   1.0000   1.0000   1.0000   1.0000   1.0000
     1.0000   1.0000   1.0000   1.0000   1.0000   1.0000   1.0000   1.0000
     1.0000   1.0000   1.0000   1.0000   1.0000   1.0000   1.0000   1.0000
     1.0000   1.0000   1.0000   1.0000   1.0000   1.0000   1.0000   1.0000
     1.0000   1.0000   1.0000   1.0000   1.0000   1.0000   1.0000   1.0000
     1.0000   1.0000   1.0000   1.0000   1.0000   1.0000   1.0000   1.0000
     1.0000   1.0000   1.0000   1.0000   1.0000   1.0000   1.0000   1.0000
     1.0000   1.0000   1.0000   1.0000   1.0000   1.0000   1.0000   1.0000
     1.0000   1.0000   1.0000   1.0000   1.0000   1.0000   1.0000   1.0000
     1.0000   1.0000   1.0000   1.0000   1.0000   1.0000   1.0000   1.0000
     1.0000   1.0000   1.0000   1.0000   1.0000   1.0000   1.0000   1.0000
     1.0000   1.0000   1.0000   1.0000   1.0000   1.0000   1.0000   1.0000
     1.0000   1.0000   1.0000   1.0000   1.0000   1.0000   1.0000   1.0000
     1.0000   1.0000   1.0000   1.0000   1.0000   1.0000   1.0000   1.0000
     1.0000   1.0000   1.0000   1.0000   1.0000   1.0000   1.0000   1.0000
     1.0000   1.0000   1.0000   1.0000   1.0000   1.0000   1.0000   1.0000
     1.0000   1.0000   1.0000   1.0000   1.0000   1.0000   1.0000   1.0000
     1.0000   1.0000   1.0000   1.0000   1.0000   1.0000   1.0000   1.0000
     1.0000   1.0000   1.0000   0.0012   0.0001   0.0000   0.0000   0.0000
     0.0000   0.0000   0.0000   0.0000   0.0000   0.0000   0.0000   0.0000
     0.0000   0.0000   0.0000   0.0000   0.0000   0.0000   0.0000   0.0000
     0.0000   0.0000   0.0000   0.0000   0.0000   0.0000   0.0000   0.0000
     0.0000   0.0000   0.0000   0.0000   0.0000   0.0000   0.0000   0.0000
     0.0000   0.0000   0.0000   0.0000   0.0000   0.0000   0.0000   0.0000
     0.0000   0.0000   0.0000   0.0000   0.0000   0.0000   0.0000   0.0000

          k = 0.2500 0.4330 0.1336 (  5344 PWs)   bands (ev):

   -79.6656 -79.5081 -79.3782 -74.6786 -74.6626 -74.5422 -45.5050 -45.4590
   -45.4563 -45.3211 -45.3184 -45.3136 -45.2619 -45.1596 -45.1570 -40.6803
   -40.6601 -40.6306 -40.6271 -40.6101 -40.6077 -40.5433 -40.4990 -40.4966
   -11.2305 -11.2236 -11.2156 -11.2049 -11.1867 -11.1788 -11.1662 -11.1553
   -11.1487 -11.1394 -11.1304 -11.1235 -11.1184 -11.1113 -11.1056 -11.0966
   -11.0911 -11.0852 -11.0808 -11.0782 -11.0741 -11.0717 -11.0699 -11.0663
   -11.0606 -11.0501 -11.0466 -11.0413 -11.0372 -11.0320  -7.4346  -7.2519
    -7.0248  -6.9613  -6.8393  -6.6944  -6.4470  -6.4214  -6.3505  -6.2385
    -6.1876  -6.1234  -6.0867  -5.9902  -5.9450  -5.8396  -5.7341  -5.6954
     1.1051   1.1762   1.3171   1.4399   1.6389   1.7343   5.1660   5.2463
     5.3756   5.4397   5.6423   5.7032   5.7685   5.8516   5.9740   6.0007
     6.0653   6.2098   6.3004   6.3408   6.4294   6.5001   6.5771   6.7223
     6.7895   6.8508   6.9210   7.0813   7.0974   7.2340   7.3874   7.4389
     7.4536   7.5454   7.6119   7.6344   7.7947   7.8428   7.9117   7.9936
     8.0403   8.0805   8.2138   8.2563   8.3382   8.4449   8.4837   8.5561
     8.6042   8.6570   8.7310   8.7820   8.8936   8.9568   9.0557   9.1345
     9.1969   9.2607   9.3191   9.3760   9.4382   9.4966   9.5797   9.9256
    10.0019  10.2056  10.3334  10.4199  10.5742  10.6496  10.7720  10.8719
    10.9518  11.2305  11.3857  12.0609  12.1226  12.1685  12.2738  12.3460
    12.4195  12.5071  12.5595  12.6775  13.2347  13.3702  13.5504  13.6913
    14.0234  14.1740  14.7649  14.8128  14.9676  15.0500  15.2685  15.3434
    15.9717  16.0025  16.1543  16.3388  16.4690  16.5779  16.8203  16.8672
    16.9407  17.0177  17.1276  17.2604  19.8965  20.3995  20.5136  21.0193
    21.2606  21.3969  21.6797  21.7935  22.0310  22.1071  22.2663  22.4784
    22.6083  22.7172  22.7728  22.8720  22.9857  23.0923  23.2435  23.3070

     occupation numbers 
     1.0000   1.0000   1.0000   1.0000   1.0000   1.0000   1.0000   1.0000
     1.0000   1.0000   1.0000   1.0000   1.0000   1.0000   1.0000   1.0000
     1.0000   1.0000   1.0000   1.0000   1.0000   1.0000   1.0000   1.0000
     1.0000   1.0000   1.0000   1.0000   1.0000   1.0000   1.0000   1.0000
     1.0000   1.0000   1.0000   1.0000   1.0000   1.0000   1.0000   1.0000
     1.0000   1.0000   1.0000   1.0000   1.0000   1.0000   1.0000   1.0000
     1.0000   1.0000   1.0000   1.0000   1.0000   1.0000   1.0000   1.0000
     1.0000   1.0000   1.0000   1.0000   1.0000   1.0000   1.0000   1.0000
     1.0000   1.0000   1.0000   1.0000   1.0000   1.0000   1.0000   1.0000
     1.0000   1.0000   1.0000   1.0000   1.0000   1.0000   1.0000   1.0000
     1.0000   1.0000   1.0000   1.0000   1.0000   1.0000   1.0000   1.0000
     1.0000   1.0000   1.0000   1.0000   1.0000   1.0000   1.0000   1.0000
     1.0000   1.0000   1.0000   1.0000   1.0000   1.0000   1.0000   1.0000
     1.0000   1.0000   1.0000   1.0000   1.0000   1.0000   1.0000   1.0000
     1.0000   1.0000   1.0000   1.0000   1.0000   1.0000   1.0000   1.0000
     1.0000   1.0000   1.0000   1.0000   1.0000   1.0000   1.0000   1.0000
     1.0000   1.0000   1.0000   1.0000   1.0000   1.0000   1.0000   1.0000
     1.0000   1.0000   1.0000   1.0000   1.0000   1.0000   1.0000   1.0000
     1.0000   1.0000   1.0000   0.0010   0.0001   0.0000   0.0000   0.0000
     0.0000   0.0000   0.0000   0.0000   0.0000   0.0000   0.0000   0.0000
     0.0000   0.0000   0.0000   0.0000   0.0000   0.0000   0.0000   0.0000
     0.0000   0.0000   0.0000   0.0000   0.0000   0.0000   0.0000   0.0000
     0.0000   0.0000   0.0000   0.0000   0.0000   0.0000   0.0000   0.0000
     0.0000   0.0000   0.0000   0.0000   0.0000   0.0000   0.0000   0.0000
     0.0000   0.0000   0.0000   0.0000   0.0000   0.0000   0.0000   0.0000

          k =-0.2500 0.1443 0.1336 (  5360 PWs)   bands (ev):

   -79.6659 -79.5084 -79.3785 -74.6789 -74.6628 -74.5424 -45.5053 -45.4614
   -45.4585 -45.3237 -45.3199 -45.3144 -45.2628 -45.1622 -45.1587 -40.6806
   -40.6594 -40.6330 -40.6311 -40.6127 -40.6080 -40.5442 -40.5014 -40.4981
   -11.2479 -11.2317 -11.2237 -11.2075 -11.1893 -11.1818 -11.1667 -11.1554
   -11.1482 -11.1426 -11.1326 -11.1280 -11.1208 -11.1169 -11.1060 -11.0961
   -11.0853 -11.0827 -11.0800 -11.0776 -11.0720 -11.0699 -11.0668 -11.0619
   -11.0603 -11.0508 -11.0414 -11.0364 -11.0316 -11.0244  -7.7661  -7.5585
    -7.1522  -6.9575  -6.6121  -6.4497  -6.3968  -6.3399  -6.2374  -6.1835
    -6.1304  -6.1089  -6.0166  -5.9949  -5.8838  -5.8635  -5.6958  -5.6641
     0.9211   0.9811   1.3664   1.4651   2.0806   2.1986   5.0943   5.2055
     5.2313   5.4204   5.5235   5.5831   5.6441   5.7172   5.7454   5.8724
     5.9230   6.0141   6.0885   6.1592   6.2383   6.3520   6.4606   6.5337
     6.6411   6.7960   6.8847   6.9532   7.0336   7.1658   7.2611   7.3207
     7.3940   7.5426   7.5839   7.7526   7.7834   7.9026   7.9320   7.9723
     8.0888   8.1480   8.2415   8.2889   8.3779   8.4676   8.5086   8.5957
     8.6835   8.7169   8.7826   8.8375   8.9686   9.0341   9.0833   9.1538
     9.2076   9.2690   9.3059   9.3643   9.4495   9.5442   9.5804   9.9647
    10.0655  10.1246  10.3598  10.4777  10.5271  10.7166  10.8238  10.9426
    11.0882  11.3513  11.5019  12.0174  12.0868  12.1591  12.2743  12.3438
    12.3925  12.4219  12.4945  12.6304  13.2313  13.3095  13.6309  13.8020
    14.1096  14.3510  14.8828  15.0296  15.1383  15.4909  15.7036  15.8147
    15.9448  16.1586  16.4220  16.6902  16.7633  16.7962  16.8016  16.9715
    17.0922  17.2467  17.3519  17.4217  19.0341  19.7322  20.1934  20.5557
    20.9350  21.2248  21.2565  21.4732  21.6597  21.7366  22.1679  22.4043
    22.4958  22.7072  22.7562  22.8569  22.8976  23.1905  23.3423  23.4012

     occupation numbers 
     1.0000   1.0000   1.0000   1.0000   1.0000   1.0000   1.0000   1.0000
     1.0000   1.0000   1.0000   1.0000   1.0000   1.0000   1.0000   1.0000
     1.0000   1.0000   1.0000   1.0000   1.0000   1.0000   1.0000   1.0000
     1.0000   1.0000   1.0000   1.0000   1.0000   1.0000   1.0000   1.0000
     1.0000   1.0000   1.0000   1.0000   1.0000   1.0000   1.0000   1.0000
     1.0000   1.0000   1.0000   1.0000   1.0000   1.0000   1.0000   1.0000
     1.0000   1.0000   1.0000   1.0000   1.0000   1.0000   1.0000   1.0000
     1.0000   1.0000   1.0000   1.0000   1.0000   1.0000   1.0000   1.0000
     1.0000   1.0000   1.0000   1.0000   1.0000   1.0000   1.0000   1.0000
     1.0000   1.0000   1.0000   1.0000   1.0000   1.0000   1.0000   1.0000
     1.0000   1.0000   1.0000   1.0000   1.0000   1.0000   1.0000   1.0000
     1.0000   1.0000   1.0000   1.0000   1.0000   1.0000   1.0000   1.0000
     1.0000   1.0000   1.0000   1.0000   1.0000   1.0000   1.0000   1.0000
     1.0000   1.0000   1.0000   1.0000   1.0000   1.0000   1.0000   1.0000
     1.0000   1.0000   1.0000   1.0000   1.0000   1.0000   1.0000   1.0000
     1.0000   1.0000   1.0000   1.0000   1.0000   1.0000   1.0000   1.0000
     1.0000   1.0000   1.0000   1.0000   1.0000   1.0000   1.0000   1.0000
     1.0000   1.0000   1.0000   1.0000   1.0000   1.0000   1.0000   1.0000
     1.0000   1.0000   0.9966   0.0040   0.0004   0.0000   0.0000   0.0000
     0.0000   0.0000   0.0000   0.0000   0.0000   0.0000   0.0000   0.0000
     0.0000   0.0000   0.0000   0.0000   0.0000   0.0000   0.0000   0.0000
     0.0000   0.0000   0.0000   0.0000   0.0000   0.0000   0.0000   0.0000
     0.0000   0.0000   0.0000   0.0000   0.0000   0.0000   0.0000   0.0000
     0.0000   0.0000   0.0000   0.0000   0.0000   0.0000   0.0000   0.0000
     0.0000   0.0000   0.0000   0.0000   0.0000   0.0000   0.0000   0.0000

          k = 0.2500-0.4330-0.1336 (  5344 PWs)   bands (ev):

   -79.6656 -79.5081 -79.3782 -74.6786 -74.6626 -74.5422 -45.5049 -45.4590
   -45.4563 -45.3211 -45.3185 -45.3137 -45.2620 -45.1596 -45.1569 -40.6803
   -40.6600 -40.6306 -40.6270 -40.6101 -40.6077 -40.5433 -40.4990 -40.4966
   -11.2303 -11.2241 -11.2148 -11.2055 -11.1861 -11.1789 -11.1674 -11.1539
   -11.1486 -11.1396 -11.1318 -11.1218 -11.1188 -11.1121 -11.1049 -11.0971
   -11.0905 -11.0849 -11.0823 -11.0769 -11.0736 -11.0730 -11.0694 -11.0661
   -11.0608 -11.0501 -11.0467 -11.0413 -11.0371 -11.0321  -7.4346  -7.2521
    -7.0247  -6.9585  -6.8458  -6.6883  -6.4541  -6.4221  -6.3350  -6.2622
    -6.1709  -6.1206  -6.0913  -5.9905  -5.9470  -5.8380  -5.7349  -5.6950
     1.1052   1.1759   1.3179   1.4389   1.6394   1.7342   5.1670   5.2416
     5.3751   5.4421   5.6488   5.6970   5.7711   5.8404   5.9413   6.0320
     6.0991   6.2141   6.3057   6.3486   6.4116   6.5017   6.5508   6.7009
     6.7740   6.8716   6.9623   7.0249   7.1206   7.2443   7.3449   7.4106
     7.4822   7.5724   7.6422   7.7120   7.7341   7.8471   7.8726   7.9545
     8.0642   8.1156   8.1997   8.2558   8.3336   8.3993   8.4868   8.5638
     8.5912   8.6942   8.7586   8.7951   8.8932   8.9474   9.0682   9.0972
     9.1884   9.2922   9.3129   9.3523   9.4484   9.5006   9.5817   9.9106
    10.0045  10.1983  10.3300  10.4942  10.5371  10.6281  10.7833  10.8654
    10.9571  11.2291  11.3885  12.0503  12.1234  12.1682  12.2732  12.3501
    12.4180  12.5080  12.5555  12.6804  13.2319  13.3766  13.5438  13.6954
    14.0236  14.1771  14.7558  14.8142  14.9613  15.0791  15.2548  15.3417
    15.9518  16.0221  16.1495  16.3373  16.4644  16.5961  16.7839  16.8856
    16.9548  16.9966  17.1679  17.2354  19.8904  20.4067  20.5445  20.9664
    21.2594  21.4003  21.6961  21.7952  21.9968  22.1690  22.2402  22.4622
    22.5963  22.7228  22.7928  22.9083  22.9688  23.0933  23.2482  23.3240

     occupation numbers 
     1.0000   1.0000   1.0000   1.0000   1.0000   1.0000   1.0000   1.0000
     1.0000   1.0000   1.0000   1.0000   1.0000   1.0000   1.0000   1.0000
     1.0000   1.0000   1.0000   1.0000   1.0000   1.0000   1.0000   1.0000
     1.0000   1.0000   1.0000   1.0000   1.0000   1.0000   1.0000   1.0000
     1.0000   1.0000   1.0000   1.0000   1.0000   1.0000   1.0000   1.0000
     1.0000   1.0000   1.0000   1.0000   1.0000   1.0000   1.0000   1.0000
     1.0000   1.0000   1.0000   1.0000   1.0000   1.0000   1.0000   1.0000
     1.0000   1.0000   1.0000   1.0000   1.0000   1.0000   1.0000   1.0000
     1.0000   1.0000   1.0000   1.0000   1.0000   1.0000   1.0000   1.0000
     1.0000   1.0000   1.0000   1.0000   1.0000   1.0000   1.0000   1.0000
     1.0000   1.0000   1.0000   1.0000   1.0000   1.0000   1.0000   1.0000
     1.0000   1.0000   1.0000   1.0000   1.0000   1.0000   1.0000   1.0000
     1.0000   1.0000   1.0000   1.0000   1.0000   1.0000   1.0000   1.0000
     1.0000   1.0000   1.0000   1.0000   1.0000   1.0000   1.0000   1.0000
     1.0000   1.0000   1.0000   1.0000   1.0000   1.0000   1.0000   1.0000
     1.0000   1.0000   1.0000   1.0000   1.0000   1.0000   1.0000   1.0000
     1.0000   1.0000   1.0000   1.0000   1.0000   1.0000   1.0000   1.0000
     1.0000   1.0000   1.0000   1.0000   1.0000   1.0000   1.0000   1.0000
     1.0000   1.0000   0.9999   0.0014   0.0001   0.0000   0.0000   0.0000
     0.0000   0.0000   0.0000   0.0000   0.0000   0.0000   0.0000   0.0000
     0.0000   0.0000   0.0000   0.0000   0.0000   0.0000   0.0000   0.0000
     0.0000   0.0000   0.0000   0.0000   0.0000   0.0000   0.0000   0.0000
     0.0000   0.0000   0.0000   0.0000   0.0000   0.0000   0.0000   0.0000
     0.0000   0.0000   0.0000   0.0000   0.0000   0.0000   0.0000   0.0000
     0.0000   0.0000   0.0000   0.0000   0.0000   0.0000   0.0000   0.0000

     the Fermi energy is    11.7626 ev

!    total energy              =   -3193.11377898 Ry
     estimated scf accuracy    <       0.00089535 Ry
     smearing contrib. (-TS)   =      -0.00022577 Ry
     internal energy E=F+TS    =   -3193.11355321 Ry

     The total energy is F=E-TS. E is the sum of the following terms:
     one-electron contribution =   -1311.52500350 Ry
     hartree contribution      =     840.63885119 Ry
     xc contribution           =    -694.57826694 Ry
     ewald contribution        =   -2027.64913396 Ry

     total magnetization       =    -0.00 Bohr mag/cell
     absolute magnetization    =    27.59 Bohr mag/cell

     convergence has been achieved in  14 iterations

     Writing output data file /home/aldair1809/Documentos/QE/4BFO/UHUBBARD/temp/kpoints_ecutwfc_4.in/bifeo3-scf.save/

     init_run     :     45.08s CPU     45.58s WALL (       1 calls)
     electrons    :   3183.98s CPU   3223.87s WALL (       1 calls)

     Called by init_run:
     wfcinit      :     43.95s CPU     44.35s WALL (       1 calls)
     wfcinit:atom :      0.06s CPU      0.06s WALL (      20 calls)
     wfcinit:wfcr :     43.31s CPU     43.69s WALL (      20 calls)
     potinit      :      0.21s CPU      0.22s WALL (       1 calls)
     hinit0       :      0.52s CPU      0.53s WALL (       1 calls)

     Called by electrons:
     c_bands      :   3008.27s CPU   3045.32s WALL (      14 calls)
     sum_band     :    169.71s CPU    172.36s WALL (      14 calls)
     v_of_rho     :      0.85s CPU      0.89s WALL (      15 calls)
     v_h          :      0.02s CPU      0.02s WALL (      15 calls)
     v_xc         :      0.82s CPU      0.86s WALL (      15 calls)
     newd         :      5.34s CPU      5.42s WALL (      15 calls)
     mix_rho      :      0.15s CPU      0.15s WALL (      14 calls)

     Called by c_bands:
     init_us_2    :      3.58s CPU      3.60s WALL (     580 calls)
     ccgdiagg     :   2415.51s CPU   2446.85s WALL (     280 calls)
     wfcrot       :    632.87s CPU    638.91s WALL (     280 calls)

     Called by sum_band:
     sum_band:wei :      0.04s CPU      0.04s WALL (      14 calls)
     sum_band:loo :    163.08s CPU    165.69s WALL (      14 calls)
     sum_band:buf :      0.63s CPU      0.64s WALL (     280 calls)
     sum_band:ini :      1.73s CPU      1.73s WALL (     280 calls)
     sum_band:cal :    120.03s CPU    120.43s WALL (     280 calls)
     sum_band:bec :      1.45s CPU      1.46s WALL (     280 calls)
     addusdens    :      6.39s CPU      6.43s WALL (      14 calls)
     addusd:skk   :      0.03s CPU      0.03s WALL (      56 calls)
     addusd:dgemm :      3.05s CPU      3.08s WALL (     112 calls)
     addusd:qvan2 :      3.23s CPU      3.23s WALL (     112 calls)

     Called by *cgdiagg:
     h_psi        :   1338.01s CPU   1363.24s WALL (  126093 calls)
     s_psi        :    677.15s CPU    681.56s WALL (  251906 calls)

     Called by h_psi:
     h_psi:calbec :    659.62s CPU    669.14s WALL (  126093 calls)
     vloc_psi     :    268.25s CPU    282.00s WALL (  126093 calls)
     add_vuspsi   :    406.97s CPU    409.18s WALL (  126093 calls)
     hs_1psi      :   1285.37s CPU   1307.51s WALL (  125813 calls)
     s_1psi       :    811.92s CPU    818.82s WALL (  125813 calls)

     General routines
     calbec       :   1313.62s CPU   1329.27s WALL (  252186 calls)
     fft          :      0.30s CPU      0.33s WALL (     313 calls)
     ffts         :      0.03s CPU      0.03s WALL (      28 calls)
     fftw         :    276.41s CPU    291.10s WALL (  419786 calls)

     Parallel routines
     fft_scatt_xy :     27.11s CPU     28.72s WALL (  420127 calls)
     fft_scatt_yz :     53.53s CPU     57.04s WALL (  420127 calls)

     PWSCF        :  53m49.64s CPU  54m32.32s WALL


   This run was terminated on:  22:32:24  29Sep2024            

=------------------------------------------------------------------------------=
   JOB DONE.
=------------------------------------------------------------------------------=
