
     Program PWSCF v.6.7MaX starts on 26Oct2024 at 18: 6:14 

     This program is part of the open-source Quantum ESPRESSO suite
     for quantum simulation of materials; please cite
         "P. Giannozzi et al., J. Phys.:Condens. Matter 21 395502 (2009);
         "P. Giannozzi et al., J. Phys.:Condens. Matter 29 465901 (2017);
          URL http://www.quantum-espresso.org", 
     in publications or presentations arising from this work. More details at
     http://www.quantum-espresso.org/quote

     Parallel version (MPI), running on     4 processors

     MPI processes distributed on     1 nodes
     R & G space division:  proc/nbgrp/npool/nimage =       4
     Waiting for input...
     Reading input from standard input

     Current dimensions of program PWSCF are:
     Max number of different atomic species (ntypx) = 10
     Max number of k-points (npk) =  40000
     Max angular momentum in pseudopotentials (lmaxx) =  3

     Subspace diagonalization in iterative solution of the eigenvalue problem:
     one sub-group per band group will be used
     scalapack distributed-memory algorithm (size of sub-group:  2*  2 procs)


     Parallelization info
     --------------------
     sticks:   dense  smooth     PW     G-vecs:    dense   smooth      PW
     Min         228     228     63                13562    13562    2037
     Max         229     229     64                13569    13569    2046
     Sum         913     913    253                54257    54257    8159



     bravais-lattice index     =            4
     lattice parameter (alat)  =      10.4531  a.u.
     unit-cell volume          =    2440.6662 (a.u.)^3
     number of atoms/cell      =           30
     number of atomic types    =            4
     number of electrons       =       294.00
     number of Kohn-Sham states=          200
     kinetic-energy cutoff     =      30.0000  Ry
     charge density cutoff     =     120.0000  Ry
     scf convergence threshold =      1.0E-07
     mixing beta               =       0.4000
     number of iterations used =            8  plain     mixing
     Exchange-correlation=  SLA  PW   PBX  PBC
                           (   1   4   3   4   0   0   0)

     celldm(1)=  10.453102  celldm(2)=   0.000000  celldm(3)=   2.467415
     celldm(4)=   0.000000  celldm(5)=   0.000000  celldm(6)=   0.000000

     crystal axes: (cart. coord. in units of alat)
               a(1) = (   1.000000   0.000000   0.000000 )  
               a(2) = (  -0.500000   0.866025   0.000000 )  
               a(3) = (   0.000000   0.000000   2.467415 )  

     reciprocal axes: (cart. coord. in units 2 pi/alat)
               b(1) = (  1.000000  0.577350 -0.000000 )  
               b(2) = (  0.000000  1.154701  0.000000 )  
               b(3) = (  0.000000 -0.000000  0.405282 )  


     PseudoPot. # 1 for O  read from file:
     /home/aldair1809/Programas/QE/q-e-qe-7.3/pseudo/o_pbe_v1.2.uspp.F.UPF
     MD5 check sum: 734c27235a0248c51dbae37a1fbe46ec
     Pseudo is Ultrasoft + core correction, Zval =  6.0
     Generated by new atomic code, or converted to UPF format
     Using radial grid of  737 points,  5 beta functions with: 
                l(1) =   0
                l(2) =   0
                l(3) =   1
                l(4) =   1
                l(5) =   2
     Q(r) pseudized with  8 coefficients,  rinner =    0.900   0.900   0.900
                                                       0.900   0.900

     PseudoPot. # 2 for Bi read from file:
     /home/aldair1809/Programas/QE/q-e-qe-7.3/pseudo/bi_pbe_v1.uspp.F.UPF
     MD5 check sum: cceb9f28ec65b6d7ff33140f5b0b1758
     Pseudo is Ultrasoft + core correction, Zval = 15.0
     Generated by new atomic code, or converted to UPF format
     Using radial grid of  899 points,  6 beta functions with: 
                l(1) =   0
                l(2) =   0
                l(3) =   1
                l(4) =   1
                l(5) =   2
                l(6) =   2
     Q(r) pseudized with  6 coefficients,  rinner =    1.000   1.000   1.000
                                                       1.000   1.000

     PseudoPot. # 3 for Fe read from file:
     /home/aldair1809/Programas/QE/q-e-qe-7.3/pseudo/fe_pbe_v1.5.uspp.F.UPF
     MD5 check sum: a130daea23fe5165f5d574ae7f82ed95
     Pseudo is Ultrasoft + core correction, Zval = 16.0
     Generated by new atomic code, or converted to UPF format
     Using radial grid of  861 points,  6 beta functions with: 
                l(1) =   0
                l(2) =   0
                l(3) =   1
                l(4) =   1
                l(5) =   2
                l(6) =   2
     Q(r) pseudized with  8 coefficients,  rinner =    1.000   1.000   1.000
                                                       1.000   1.000

     PseudoPot. # 4 for Fe read from file:
     /home/aldair1809/Programas/QE/q-e-qe-7.3/pseudo/fe_pbe_v1.5.uspp.F.UPF
     MD5 check sum: a130daea23fe5165f5d574ae7f82ed95
     Pseudo is Ultrasoft + core correction, Zval = 16.0
     Generated by new atomic code, or converted to UPF format
     Using radial grid of  861 points,  6 beta functions with: 
                l(1) =   0
                l(2) =   0
                l(3) =   1
                l(4) =   1
                l(5) =   2
                l(6) =   2
     Q(r) pseudized with  8 coefficients,  rinner =    1.000   1.000   1.000
                                                       1.000   1.000

     atomic species   valence    mass     pseudopotential
        O              6.00    15.99940     O ( 1.00)
        Bi            15.00   208.98040     Bi( 1.00)
        Fe1           16.00    55.84500     Fe( 1.00)
        Fe2           16.00    55.84500     Fe( 1.00)

     Starting magnetic structure 
     atomic species   magnetization
        O            0.000
        Bi           0.000
        Fe1         -0.800
        Fe2          0.800


     Simplified LDA+U calculation (l_max = 2) with parameters (eV):
     atomic species    L          U    alpha       J0     beta
        Fe1            2     0.5000  -0.2000   0.0000   0.0000
        Fe2            2     0.5000  -0.2000   0.0000   0.0000



      3 Sym. Ops. (no inversion) found


                                    s                        frac. trans.

      isym =  1     identity                                     

 cryst.   s( 1) = (     1          0          0      )
                  (     0          1          0      )
                  (     0          0          1      )

 cart.    s( 1) = (  1.0000000  0.0000000  0.0000000 )
                  (  0.0000000  1.0000000  0.0000000 )
                  (  0.0000000  0.0000000  1.0000000 )


      isym =  2     120 deg rotation - cryst. axis [0,0,1]       

 cryst.   s( 2) = (     0          1          0      )
                  (    -1         -1          0      )
                  (     0          0          1      )

 cart.    s( 2) = ( -0.5000000 -0.8660254  0.0000000 )
                  (  0.8660254 -0.5000000  0.0000000 )
                  (  0.0000000  0.0000000  1.0000000 )


      isym =  3     120 deg rotation - cryst. axis [0,0,-1]      

 cryst.   s( 3) = (    -1         -1          0      )
                  (     1          0          0      )
                  (     0          0          1      )

 cart.    s( 3) = ( -0.5000000  0.8660254  0.0000000 )
                  ( -0.8660254 -0.5000000  0.0000000 )
                  (  0.0000000  0.0000000  1.0000000 )


     point group C_3 (3)    
     there are  3 classes
     the character table:

       E     C3    C3^2 
A      1.00  1.00  1.00
E      1.00 -0.50 -0.50
E*     1.00 -0.50 -0.50
     imaginary part
A      0.00  0.00  0.00
E      0.00  0.87 -0.87
E*     0.00 -0.87  0.87

     the symmetry operations in each class and the name of the first element:

     E        1
          identity                                               
     C3       2
          120 deg rotation - cryst. axis [0,0,1]                 
     C3^2     3
          120 deg rotation - cryst. axis [0,0,-1]                

   Cartesian axes

     site n.     atom                  positions (alat units)
         1           Fe1 tau(   1) = (   0.0000000   0.0000000   1.9173194  )
         2           Fe1 tau(   2) = (  -0.0000005   0.5773506   2.3408318  )
         3           Fe1 tau(   3) = (   0.5000005   0.2886748   1.4987656  )
         4           Fe2 tau(   4) = (   0.5000005   0.2886748   0.2650306  )
         5           Fe2 tau(   5) = (   0.0000000   0.0000000   0.6836385  )
         6           Fe2 tau(   6) = (  -0.0000005   0.5773506   1.1071829  )
         7           Bi  tau(   7) = (   0.5000005   0.2886748   2.0704508  )
         8           Bi  tau(   8) = (  -0.0000005   0.5773506   1.6683657  )
         9           Bi  tau(   9) = (  -0.0000005   0.5773506   0.4345959  )
        10           Bi  tau(  10) = (   0.0000000   0.0000000   0.0112133  )
        11           Bi  tau(  11) = (   0.0000000   0.0000000   1.2449306  )
        12           Bi  tau(  12) = (   0.5000005   0.2886748   0.8366940  )
        13           O   tau(  13) = (  -0.3015234   0.6617768   2.1713309  )
        14           O   tau(  14) = (   0.0776467   0.2740092   2.1713309  )
        15           O   tau(  15) = (   0.2238783   0.7962639   2.1713309  )
        16           O   tau(  16) = (   0.4195843   0.5622547   1.7587968  )
        17           O   tau(  17) = (   0.3032805   0.0822442   1.7587968  )
        18           O   tau(  18) = (   0.7771337   0.2215274   1.7587968  )
        19           O   tau(  19) = (   0.6967279   0.0822438   0.5250654  )
        20           O   tau(  20) = (   0.5804103   0.5622631   0.5250654  )
        21           O   tau(  21) = (   0.2228602   0.2215194   0.5250654  )
        22           O   tau(  22) = (  -0.0757596   0.8510068   0.1130324  )
        23           O   tau(  23) = (  -0.1991137   0.3749123   0.1130324  )
        24           O   tau(  24) = (   0.2748733   0.5061317   0.1130324  )
        25           O   tau(  25) = (   0.1991050   0.3749017   1.3467955  )
        26           O   tau(  26) = (   0.0757731   0.8510045   1.3467955  )
        27           O   tau(  27) = (  -0.2748781   0.5061446   1.3467955  )
        28           O   tau(  28) = (  -0.0776631   0.2740052   0.9376559  )
        29           O   tau(  29) = (   0.3015366   0.6617637   0.9376559  )
        30           O   tau(  30) = (  -0.2238720   0.7962811   0.9376559  )

   Crystallographic axes

     site n.     atom                  positions (cryst. coord.)
         1           Fe1 tau(   1) = (  0.0000000  0.0000000  0.7770559  )
         2           Fe1 tau(   2) = (  0.3333330  0.6666670  0.9486980  )
         3           Fe1 tau(   3) = (  0.6666670  0.3333330  0.6074234  )
         4           Fe2 tau(   4) = (  0.6666670  0.3333330  0.1074122  )
         5           Fe2 tau(   5) = (  0.0000000  0.0000000  0.2770667  )
         6           Fe2 tau(   6) = (  0.3333330  0.6666670  0.4487218  )
         7           Bi  tau(   7) = (  0.6666670  0.3333330  0.8391174  )
         8           Bi  tau(   8) = (  0.3333330  0.6666670  0.6761593  )
         9           Bi  tau(   9) = (  0.3333330  0.6666670  0.1761341  )
        10           Bi  tau(  10) = (  0.0000000  0.0000000  0.0045446  )
        11           Bi  tau(  11) = (  0.0000000  0.0000000  0.5045485  )
        12           Bi  tau(  12) = (  0.6666670  0.3333330  0.3390974  )
        13           O   tau(  13) = (  0.0805536  0.7641541  0.8800023  )
        14           O   tau(  14) = (  0.2358459  0.3163985  0.8800023  )
        15           O   tau(  15) = (  0.6836015  0.9194464  0.8800023  )
        16           O   tau(  16) = (  0.7442022  0.6492358  0.7128095  )
        17           O   tau(  17) = (  0.3507642  0.0949674  0.7128095  )
        18           O   tau(  18) = (  0.9050326  0.2557978  0.7128095  )
        19           O   tau(  19) = (  0.7442114  0.0949669  0.2127998  )
        20           O   tau(  20) = (  0.9050331  0.6492455  0.2127998  )
        21           O   tau(  21) = (  0.3507545  0.2557886  0.2127998  )
        22           O   tau(  22) = (  0.4155694  0.9826580  0.0458101  )
        23           O   tau(  23) = (  0.0173420  0.4329115  0.0458101  )
        24           O   tau(  24) = (  0.5670885  0.5844306  0.0458101  )
        25           O   tau(  25) = (  0.4155546  0.4328992  0.5458326  )
        26           O   tau(  26) = (  0.5671008  0.9826554  0.5458326  )
        27           O   tau(  27) = (  0.0173446  0.5844454  0.5458326  )
        28           O   tau(  28) = (  0.0805338  0.3163939  0.3800155  )
        29           O   tau(  29) = (  0.6836061  0.7641389  0.3800155  )
        30           O   tau(  30) = (  0.2358611  0.9194662  0.3800155  )

     number of k points=     2  Methfessel-Paxton smearing, width (Ry)=  0.0100
                       cart. coord. in units 2pi/alat
        k(    1) = (   0.0000000   0.0000000   0.0000000), wk =   0.2500000
        k(    2) = (   0.0000000  -0.5773503   0.0000000), wk =   0.7500000

                       cryst. coord.
        k(    1) = (   0.0000000   0.0000000   0.0000000), wk =   0.2500000
        k(    2) = (   0.0000000  -0.5000000   0.0000000), wk =   0.7500000

     Dense  grid:    54257 G-vectors     FFT dimensions: (  40,  40,  90)

     Dynamical RAM for                 wfc:       5.17 MB

     Dynamical RAM for     wfc (w. buffer):      25.83 MB

     Dynamical RAM for             U proj.:       0.77 MB

     Dynamical RAM for  U proj. (w. buff.):       3.87 MB

     Dynamical RAM for           str. fact:       0.83 MB

     Dynamical RAM for           local pot:       0.00 MB

     Dynamical RAM for          nlocal pot:      11.62 MB

     Dynamical RAM for                qrad:       3.52 MB

     Dynamical RAM for          rho,v,vnew:       2.93 MB

     Dynamical RAM for               rhoin:       0.98 MB

     Dynamical RAM for            rho*nmix:       6.62 MB

     Dynamical RAM for           G-vectors:       0.88 MB

     Dynamical RAM for          h,s,v(r/c):       0.46 MB

     Dynamical RAM for          <psi|beta>:       1.37 MB

     Dynamical RAM for      wfcinit/wfcrot:      11.49 MB

     Dynamical RAM for           addusdens:      42.42 MB

     Estimated static dynamical RAM per process >      59.80 MB

     Estimated max dynamical RAM per process >     102.23 MB

     Estimated total dynamical RAM >     408.91 MB

     Check: negative core charge=   -0.000259
     Generating pointlists ...
     new r_m :   0.1435 (alat units)  1.5003 (a.u.) for type    1
     new r_m :   0.1728 (alat units)  1.8065 (a.u.) for type    2
     new r_m :   0.1435 (alat units)  1.5003 (a.u.) for type    3
     new r_m :   0.1435 (alat units)  1.5003 (a.u.) for type    4

     The initial density is read from file :
     /home/aldair1809/Documentos/QE/4BFO/hubbard_pbe_mp/lr_-0.2/bifeo3-Uhubbard.save/charge-density


     negative rho (up, down):  1.216E-01 1.216E-01
 --- in v_hubbard ---
Hubbard energy   -0.4251
 -------
     Number of +U iterations with fixed ns =  0
     Starting occupations:
 --- enter write_ns ---
 LDA+U parameters:
U( 3)     =  0.50000000
alpha( 3) = -0.20000000
U( 4)     =  0.50000000
alpha( 4) = -0.20000000
atom    1   Tr[ns(na)] (up, down, total) =   1.12068  4.90053  6.02122
   spin  1
    eigenvalues: 
  0.164  0.164  0.169  0.312  0.312
    eigenvectors:
  0.000  0.000  1.000  0.000  0.000
  0.076  0.317  0.000  0.025  0.582
  0.317  0.076  0.000  0.582  0.025
  0.168  0.439  0.000  0.205  0.189
  0.439  0.168  0.000  0.189  0.205
    occupations:
  0.169 -0.000 -0.000 -0.000 -0.000
 -0.000  0.254 -0.000  0.038  0.061
 -0.000 -0.000  0.254  0.061 -0.038
 -0.000  0.038  0.061  0.222  0.000
 -0.000  0.061 -0.038  0.000  0.222
   spin  2
    eigenvalues: 
  0.978  0.978  0.981  0.982  0.982
    eigenvectors:
  0.000  0.000  1.000  0.000  0.000
  0.027  0.444  0.000  0.070  0.459
  0.444  0.027  0.000  0.459  0.070
  0.211  0.319  0.000  0.128  0.342
  0.319  0.211  0.000  0.342  0.128
    occupations:
  0.981 -0.000 -0.000 -0.000 -0.000
 -0.000  0.980 -0.000 -0.001 -0.002
 -0.000 -0.000  0.980 -0.002  0.001
 -0.000 -0.001 -0.002  0.980  0.000
 -0.000 -0.002  0.001  0.000  0.980
atomic mag. moment =  -3.77985
atom    2   Tr[ns(na)] (up, down, total) =   1.20281  4.86573  6.06854
   spin  1
    eigenvalues: 
  0.165  0.179  0.179  0.340  0.340
    eigenvectors:
  1.000  0.000  0.000  0.000  0.000
  0.000  0.222  0.059  0.275  0.445
  0.000  0.059  0.222  0.445  0.275
  0.000  0.099  0.621  0.001  0.280
  0.000  0.621  0.099  0.280  0.001
    occupations:
  0.165 -0.000 -0.000 -0.000 -0.000
 -0.000  0.295 -0.000 -0.055  0.048
 -0.000 -0.000  0.295  0.048  0.055
 -0.000 -0.055  0.048  0.224  0.000
 -0.000  0.048  0.055  0.000  0.224
   spin  2
    eigenvalues: 
  0.963  0.963  0.979  0.980  0.980
    eigenvectors:
  0.000  0.000  1.000  0.000  0.000
  0.417  0.256  0.000  0.275  0.052
  0.256  0.417  0.000  0.052  0.275
  0.000  0.327  0.000  0.050  0.623
  0.327  0.000  0.000  0.623  0.050
    occupations:
  0.979 -0.000 -0.000 -0.000 -0.000
 -0.000  0.969 -0.000  0.005 -0.006
 -0.000 -0.000  0.969 -0.006 -0.005
 -0.000  0.005 -0.006  0.975  0.000
 -0.000 -0.006 -0.005  0.000  0.975
atomic mag. moment =  -3.66291
atom    3   Tr[ns(na)] (up, down, total) =   1.21607  4.87089  6.08695
   spin  1
    eigenvalues: 
  0.183  0.183  0.191  0.329  0.329
    eigenvectors:
  0.000  0.000  1.000  0.000  0.000
  0.377  0.191  0.000  0.337  0.096
  0.191  0.377  0.000  0.096  0.337
  0.027  0.405  0.000  0.079  0.489
  0.405  0.027  0.000  0.489  0.079
    occupations:
  0.191 -0.000 -0.000 -0.000 -0.000
 -0.000  0.246 -0.000 -0.056  0.047
 -0.000 -0.000  0.246  0.047  0.056
 -0.000 -0.056  0.047  0.266  0.000
 -0.000  0.047  0.056  0.000  0.266
   spin  2
    eigenvalues: 
  0.967  0.967  0.979  0.980  0.980
    eigenvectors:
  0.000  0.000  1.000  0.000  0.000
  0.432  0.112  0.000  0.327  0.130
  0.112  0.432  0.000  0.130  0.327
  0.040  0.416  0.000  0.024  0.520
  0.416  0.040  0.000  0.520  0.024
    occupations:
  0.979 -0.000 -0.000 -0.000 -0.000
 -0.000  0.972 -0.000  0.005 -0.005
 -0.000 -0.000  0.972 -0.005 -0.005
 -0.000  0.005 -0.005  0.974  0.000
 -0.000 -0.005 -0.005  0.000  0.974
atomic mag. moment =  -3.65482
atom    4   Tr[ns(na)] (up, down, total) =   4.87093  1.21631  6.08724
   spin  1
    eigenvalues: 
  0.967  0.967  0.979  0.980  0.980
    eigenvectors:
  0.000  0.000  1.000  0.000  0.000
  0.007  0.537  0.000  0.039  0.417
  0.537  0.007  0.000  0.417  0.039
  0.184  0.273  0.000  0.126  0.418
  0.273  0.184  0.000  0.418  0.126
    occupations:
  0.979 -0.000 -0.000 -0.000 -0.000
 -0.000  0.972 -0.000 -0.005 -0.005
 -0.000 -0.000  0.972 -0.005  0.005
 -0.000 -0.005 -0.005  0.974  0.000
 -0.000 -0.005  0.005  0.000  0.974
   spin  2
    eigenvalues: 
  0.183  0.183  0.192  0.329  0.329
    eigenvectors:
  0.000  0.000  1.000  0.000  0.000
  0.000  0.568  0.000  0.004  0.428
  0.568  0.000  0.000  0.428  0.004
  0.167  0.265  0.000  0.186  0.382
  0.265  0.167  0.000  0.382  0.186
    occupations:
  0.192 -0.000 -0.000 -0.000 -0.000
 -0.000  0.246 -0.000  0.055  0.047
 -0.000 -0.000  0.246  0.047 -0.055
 -0.000  0.055  0.047  0.266  0.000
 -0.000  0.047 -0.055  0.000  0.266
atomic mag. moment =   3.65462
atom    5   Tr[ns(na)] (up, down, total) =   4.90061  1.12299  6.02360
   spin  1
    eigenvalues: 
  0.978  0.978  0.981  0.982  0.982
    eigenvectors:
  0.000  0.000  1.000  0.000  0.000
  0.446  0.024  0.000  0.402  0.128
  0.024  0.446  0.000  0.128  0.402
  0.088  0.442  0.000  0.008  0.462
  0.442  0.088  0.000  0.462  0.008
    occupations:
  0.981 -0.000 -0.000 -0.000 -0.000
 -0.000  0.980 -0.000  0.001 -0.002
 -0.000 -0.000  0.980 -0.002 -0.001
 -0.000  0.001 -0.002  0.980  0.000
 -0.000 -0.002 -0.001  0.000  0.980
   spin  2
    eigenvalues: 
  0.165  0.165  0.169  0.312  0.312
    eigenvectors:
  0.000  0.000  1.000  0.000  0.000
  0.370  0.022  0.000  0.580  0.028
  0.022  0.370  0.000  0.028  0.580
  0.059  0.548  0.000  0.045  0.348
  0.548  0.059  0.000  0.348  0.045
    occupations:
  0.169 -0.000 -0.000 -0.000 -0.000
 -0.000  0.254 -0.000 -0.038  0.061
 -0.000 -0.000  0.254  0.061  0.038
 -0.000 -0.038  0.061  0.223  0.000
 -0.000  0.061  0.038  0.000  0.223
atomic mag. moment =   3.77762
atom    6   Tr[ns(na)] (up, down, total) =   4.86578  1.20349  6.06928
   spin  1
    eigenvalues: 
  0.963  0.963  0.979  0.980  0.980
    eigenvectors:
  0.000  0.000  1.000  0.000  0.000
  0.005  0.668  0.000  0.059  0.268
  0.668  0.005  0.000  0.268  0.059
  0.169  0.158  0.000  0.126  0.546
  0.158  0.169  0.000  0.546  0.126
    occupations:
  0.979 -0.000 -0.000 -0.000 -0.000
 -0.000  0.969 -0.000 -0.005 -0.006
 -0.000 -0.000  0.969 -0.006  0.005
 -0.000 -0.005 -0.006  0.975  0.000
 -0.000 -0.006  0.005  0.000  0.975
   spin  2
    eigenvalues: 
  0.165  0.179  0.179  0.340  0.340
    eigenvectors:
  1.000  0.000  0.000  0.000  0.000
  0.000  0.011  0.269  0.001  0.720
  0.000  0.269  0.011  0.720  0.001
  0.000  0.176  0.544  0.130  0.149
  0.000  0.544  0.176  0.149  0.130
    occupations:
  0.165 -0.000 -0.000 -0.000 -0.000
 -0.000  0.295 -0.000  0.055  0.047
 -0.000 -0.000  0.295  0.047 -0.055
 -0.000  0.055  0.047  0.224  0.000
 -0.000  0.047 -0.055  0.000  0.224
atomic mag. moment =   3.66229
N of occupied +U levels =   36.356828
 --- exit write_ns ---
 Atomic wfc used for LDA+U Projector are NOT orthogonalized
     Starting wfcs are  204 randomized atomic wfcs

     total cpu time spent up to now is       35.8 secs

     Self-consistent Calculation

     iteration #  1     ecut=    30.00 Ry     beta= 0.40
     CG style diagonalization
     c_bands:  1 eigenvalues not converged
     c_bands:  5 eigenvalues not converged
     c_bands:  2 eigenvalues not converged
     c_bands:  1 eigenvalues not converged
     ethr =  1.00E-09,  avg # of iterations = 38.4
 --- enter write_ns ---
 LDA+U parameters:
U( 3)     =  0.50000000
alpha( 3) = -0.20000000
U( 4)     =  0.50000000
alpha( 4) = -0.20000000
atom    1   Tr[ns(na)] (up, down, total) =   1.18244  4.90390  6.08634
   spin  1
    eigenvalues: 
  0.167  0.181  0.181  0.327  0.327
    eigenvectors:
  1.000  0.000  0.000  0.000  0.000
  0.000  0.084  0.307  0.028  0.581
  0.000  0.307  0.084  0.581  0.028
  0.000  0.166  0.443  0.207  0.184
  0.000  0.443  0.166  0.184  0.207
    occupations:
  0.167 -0.000 -0.000 -0.000 -0.000
 -0.000  0.270 -0.000  0.037  0.061
 -0.000 -0.000  0.270  0.061 -0.037
 -0.000  0.037  0.061  0.238  0.000
 -0.000  0.061 -0.037  0.000  0.238
   spin  2
    eigenvalues: 
  0.979  0.979  0.981  0.982  0.982
    eigenvectors:
  0.000  0.000  1.000  0.000  0.000
  0.053  0.343  0.000  0.098  0.506
  0.343  0.053  0.000  0.506  0.098
  0.228  0.377  0.000  0.134  0.262
  0.377  0.228  0.000  0.262  0.134
    occupations:
  0.981 -0.000 -0.000 -0.000 -0.000
 -0.000  0.981 -0.000 -0.001 -0.001
 -0.000 -0.000  0.981 -0.001  0.001
 -0.000 -0.001 -0.001  0.980  0.000
 -0.000 -0.001  0.001  0.000  0.980
atomic mag. moment =  -3.72146
atom    2   Tr[ns(na)] (up, down, total) =   1.27578  4.86409  6.13988
   spin  1
    eigenvalues: 
  0.182  0.193  0.193  0.354  0.354
    eigenvectors:
  1.000  0.000  0.000  0.000  0.000
  0.000  0.212  0.063  0.264  0.461
  0.000  0.063  0.212  0.461  0.264
  0.000  0.098  0.628  0.001  0.274
  0.000  0.628  0.098  0.274  0.001
    occupations:
  0.182 -0.000 -0.000 -0.000 -0.000
 -0.000  0.310 -0.000 -0.055  0.046
 -0.000 -0.000  0.310  0.046  0.055
 -0.000 -0.055  0.046  0.237  0.000
 -0.000  0.046  0.055  0.000  0.237
   spin  2
    eigenvalues: 
  0.962  0.962  0.979  0.981  0.981
    eigenvectors:
  0.000  0.000  1.000  0.000  0.000
  0.416  0.262  0.000  0.275  0.047
  0.262  0.416  0.000  0.047  0.275
  0.000  0.322  0.000  0.051  0.627
  0.322  0.000  0.000  0.627  0.051
    occupations:
  0.979 -0.000 -0.000 -0.000 -0.000
 -0.000  0.968 -0.000  0.005 -0.007
 -0.000 -0.000  0.968 -0.007 -0.005
 -0.000  0.005 -0.007  0.975  0.000
 -0.000 -0.007 -0.005  0.000  0.975
atomic mag. moment =  -3.58831
atom    3   Tr[ns(na)] (up, down, total) =   1.30944  4.87122  6.18066
   spin  1
    eigenvalues: 
  0.202  0.202  0.216  0.344  0.344
    eigenvectors:
  0.000  0.000  1.000  0.000  0.000
  0.373  0.217  0.000  0.313  0.097
  0.217  0.373  0.000  0.097  0.313
  0.024  0.385  0.000  0.085  0.505
  0.385  0.024  0.000  0.505  0.085
    occupations:
  0.216 -0.000 -0.000 -0.000 -0.000
 -0.000  0.261 -0.000 -0.055  0.044
 -0.000 -0.000  0.261  0.044  0.055
 -0.000 -0.055  0.044  0.286  0.000
 -0.000  0.044  0.055  0.000  0.286
   spin  2
    eigenvalues: 
  0.966  0.966  0.979  0.980  0.980
    eigenvectors:
  0.000  0.000  1.000  0.000  0.000
  0.440  0.106  0.000  0.330  0.124
  0.106  0.440  0.000  0.124  0.330
  0.040  0.414  0.000  0.024  0.522
  0.414  0.040  0.000  0.522  0.024
    occupations:
  0.979 -0.000 -0.000 -0.000 -0.000
 -0.000  0.972 -0.000  0.005 -0.005
 -0.000 -0.000  0.972 -0.005 -0.005
 -0.000  0.005 -0.005  0.974  0.000
 -0.000 -0.005 -0.005  0.000  0.974
atomic mag. moment =  -3.56178
atom    4   Tr[ns(na)] (up, down, total) =   4.86832  1.30320  6.17152
   spin  1
    eigenvalues: 
  0.965  0.965  0.979  0.980  0.980
    eigenvectors:
  0.000  0.000  1.000  0.000  0.000
  0.007  0.546  0.000  0.041  0.405
  0.546  0.007  0.000  0.405  0.041
  0.183  0.263  0.000  0.126  0.427
  0.263  0.183  0.000  0.427  0.126
    occupations:
  0.979 -0.000 -0.000 -0.000 -0.000
 -0.000  0.972 -0.000 -0.005 -0.005
 -0.000 -0.000  0.972 -0.005  0.005
 -0.000 -0.005 -0.005  0.973  0.000
 -0.000 -0.005  0.005  0.000  0.973
   spin  2
    eigenvalues: 
  0.201  0.201  0.215  0.344  0.344
    eigenvectors:
  0.000  0.000  1.000  0.000  0.000
  0.000  0.583  0.000  0.003  0.414
  0.583  0.000  0.000  0.414  0.003
  0.164  0.252  0.000  0.185  0.399
  0.252  0.164  0.000  0.399  0.185
    occupations:
  0.215 -0.000 -0.000 -0.000 -0.000
 -0.000  0.260 -0.000  0.055  0.044
 -0.000 -0.000  0.260  0.044 -0.055
 -0.000  0.055  0.044  0.284  0.000
 -0.000  0.044 -0.055  0.000  0.284
atomic mag. moment =   3.56512
atom    5   Tr[ns(na)] (up, down, total) =   4.89990  1.17448  6.07438
   spin  1
    eigenvalues: 
  0.978  0.978  0.981  0.982  0.982
    eigenvectors:
  0.000  0.000  1.000  0.000  0.000
  0.413  0.034  0.000  0.392  0.162
  0.034  0.413  0.000  0.162  0.392
  0.091  0.463  0.000  0.007  0.440
  0.463  0.091  0.000  0.440  0.007
    occupations:
  0.981 -0.000 -0.000 -0.000 -0.000
 -0.000  0.980 -0.000  0.001 -0.002
 -0.000 -0.000  0.980 -0.002 -0.001
 -0.000  0.001 -0.002  0.980  0.000
 -0.000 -0.002 -0.001  0.000  0.980
   spin  2
    eigenvalues: 
  0.168  0.179  0.179  0.324  0.324
    eigenvectors:
  1.000  0.000  0.000  0.000  0.000
  0.000  0.372  0.020  0.589  0.019
  0.000  0.020  0.372  0.019  0.589
  0.000  0.058  0.550  0.050  0.342
  0.000  0.550  0.058  0.342  0.050
    occupations:
  0.168 -0.000 -0.000 -0.000 -0.000
 -0.000  0.267 -0.000 -0.037  0.061
 -0.000 -0.000  0.267  0.061  0.037
 -0.000 -0.037  0.061  0.236  0.000
 -0.000  0.061  0.037  0.000  0.236
atomic mag. moment =   3.72542
atom    6   Tr[ns(na)] (up, down, total) =   4.86051  1.26942  6.12993
   spin  1
    eigenvalues: 
  0.960  0.960  0.979  0.981  0.981
    eigenvectors:
  0.000  0.000  1.000  0.000  0.000
  0.005  0.666  0.000  0.060  0.268
  0.666  0.005  0.000  0.268  0.060
  0.170  0.159  0.000  0.126  0.545
  0.159  0.170  0.000  0.545  0.126
    occupations:
  0.979 -0.000 -0.000 -0.000 -0.000
 -0.000  0.967 -0.000 -0.006 -0.007
 -0.000 -0.000  0.967 -0.007  0.006
 -0.000 -0.006 -0.007  0.974  0.000
 -0.000 -0.007  0.006  0.000  0.974
   spin  2
    eigenvalues: 
  0.181  0.192  0.192  0.352  0.352
    eigenvectors:
  1.000  0.000  0.000  0.000  0.000
  0.000  0.011  0.265  0.001  0.723
  0.000  0.265  0.011  0.723  0.001
  0.000  0.173  0.551  0.128  0.148
  0.000  0.551  0.173  0.148  0.128
    occupations:
  0.181 -0.000 -0.000 -0.000 -0.000
 -0.000  0.308 -0.000  0.054  0.047
 -0.000 -0.000  0.308  0.047 -0.054
 -0.000  0.054  0.047  0.236  0.000
 -0.000  0.047 -0.054  0.000  0.236
atomic mag. moment =   3.59109
N of occupied +U levels =   36.782704
 --- exit write_ns ---

     negative rho (up, down):  1.216E-01 1.216E-01
 --- in v_hubbard ---
Hubbard energy   -0.4259
 -------

     total cpu time spent up to now is     1121.3 secs

     total energy              =   -3195.21672946 Ry
     estimated scf accuracy    <       0.01672416 Ry

     total magnetization       =    -0.03 Bohr mag/cell
     absolute magnetization    =    27.33 Bohr mag/cell

     iteration #  2     ecut=    30.00 Ry     beta= 0.40
     CG style diagonalization
     ethr =  5.69E-06,  avg # of iterations =  3.5
 --- enter write_ns ---
 LDA+U parameters:
U( 3)     =  0.50000000
alpha( 3) = -0.20000000
U( 4)     =  0.50000000
alpha( 4) = -0.20000000
atom    1   Tr[ns(na)] (up, down, total) =   1.08173  4.89847  5.98020
   spin  1
    eigenvalues: 
  0.149  0.160  0.160  0.306  0.306
    eigenvectors:
  1.000  0.000  0.000  0.000  0.000
  0.000  0.071  0.323  0.022  0.584
  0.000  0.323  0.071  0.584  0.022
  0.000  0.164  0.442  0.201  0.193
  0.000  0.442  0.164  0.193  0.201
    occupations:
  0.149 -0.000 -0.000 -0.000 -0.000
 -0.000  0.249 -0.000  0.039  0.059
 -0.000 -0.000  0.249  0.059 -0.039
 -0.000  0.039  0.059  0.218  0.000
 -0.000  0.059 -0.039  0.000  0.218
   spin  2
    eigenvalues: 
  0.978  0.978  0.980  0.981  0.981
    eigenvectors:
  0.000  0.000  1.000  0.000  0.000
  0.048  0.354  0.000  0.093  0.505
  0.354  0.048  0.000  0.505  0.093
  0.226  0.372  0.000  0.133  0.270
  0.372  0.226  0.000  0.270  0.133
    occupations:
  0.980 -0.000 -0.000 -0.000 -0.000
 -0.000  0.980 -0.000 -0.001 -0.001
 -0.000 -0.000  0.980 -0.001  0.001
 -0.000 -0.001 -0.001  0.979  0.000
 -0.000 -0.001  0.001  0.000  0.979
atomic mag. moment =  -3.81674
atom    2   Tr[ns(na)] (up, down, total) =   1.16116  4.86234  6.02350
   spin  1
    eigenvalues: 
  0.160  0.169  0.169  0.332  0.332
    eigenvectors:
  1.000  0.000  0.000  0.000  0.000
  0.000  0.229  0.062  0.293  0.417
  0.000  0.062  0.229  0.417  0.293
  0.000  0.090  0.620  0.000  0.290
  0.000  0.620  0.090  0.290  0.000
    occupations:
  0.160 -0.000 -0.000 -0.000 -0.000
 -0.000  0.285 -0.000 -0.055  0.049
 -0.000 -0.000  0.285  0.049  0.055
 -0.000 -0.055  0.049  0.216  0.000
 -0.000  0.049  0.055  0.000  0.216
   spin  2
    eigenvalues: 
  0.962  0.962  0.978  0.980  0.980
    eigenvectors:
  0.000  0.000  1.000  0.000  0.000
  0.426  0.249  0.000  0.279  0.045
  0.249  0.426  0.000  0.045  0.279
  0.000  0.324  0.000  0.050  0.625
  0.324  0.000  0.000  0.625  0.050
    occupations:
  0.978 -0.000 -0.000 -0.000 -0.000
 -0.000  0.968 -0.000  0.005 -0.006
 -0.000 -0.000  0.968 -0.006 -0.005
 -0.000  0.005 -0.006  0.974  0.000
 -0.000 -0.006 -0.005  0.000  0.974
atomic mag. moment =  -3.70118
atom    3   Tr[ns(na)] (up, down, total) =   1.12356  4.85477  5.97834
   spin  1
    eigenvalues: 
  0.164  0.164  0.174  0.311  0.311
    eigenvectors:
  0.000  0.000  1.000  0.000  0.000
  0.376  0.162  0.000  0.365  0.097
  0.162  0.376  0.000  0.097  0.365
  0.031  0.431  0.000  0.069  0.469
  0.431  0.031  0.000  0.469  0.069
    occupations:
  0.174 -0.000 -0.000 -0.000 -0.000
 -0.000  0.232 -0.000 -0.055  0.049
 -0.000 -0.000  0.232  0.049  0.055
 -0.000 -0.055  0.049  0.243  0.000
 -0.000  0.049  0.055  0.000  0.243
   spin  2
    eigenvalues: 
  0.961  0.961  0.977  0.978  0.978
    eigenvectors:
  0.000  0.000  1.000  0.000  0.000
  0.452  0.104  0.000  0.331  0.113
  0.104  0.452  0.000  0.113  0.331
  0.037  0.406  0.000  0.025  0.531
  0.406  0.037  0.000  0.531  0.025
    occupations:
  0.977 -0.000 -0.000 -0.000 -0.000
 -0.000  0.968 -0.000  0.006 -0.006
 -0.000 -0.000  0.968 -0.006 -0.006
 -0.000  0.006 -0.006  0.970  0.000
 -0.000 -0.006 -0.006  0.000  0.970
atomic mag. moment =  -3.73121
atom    4   Tr[ns(na)] (up, down, total) =   4.86582  1.16674  6.03257
   spin  1
    eigenvalues: 
  0.966  0.966  0.978  0.978  0.978
    eigenvectors:
  0.000  0.000  1.000  0.000  0.000
  0.008  0.526  0.000  0.041  0.425
  0.526  0.008  0.000  0.425  0.041
  0.187  0.279  0.000  0.126  0.408
  0.279  0.187  0.000  0.408  0.126
    occupations:
  0.978 -0.000 -0.000 -0.000 -0.000
 -0.000  0.972 -0.000 -0.004 -0.005
 -0.000 -0.000  0.972 -0.005  0.004
 -0.000 -0.004 -0.005  0.972  0.000
 -0.000 -0.005  0.004  0.000  0.972
   spin  2
    eigenvalues: 
  0.173  0.173  0.183  0.318  0.318
    eigenvectors:
  0.000  0.000  1.000  0.000  0.000
  0.000  0.569  0.000  0.003  0.428
  0.569  0.000  0.000  0.428  0.003
  0.167  0.265  0.000  0.185  0.384
  0.265  0.167  0.000  0.384  0.185
    occupations:
  0.183 -0.000 -0.000 -0.000 -0.000
 -0.000  0.236 -0.000  0.055  0.046
 -0.000 -0.000  0.236  0.046 -0.055
 -0.000  0.055  0.046  0.256  0.000
 -0.000  0.046 -0.055  0.000  0.256
atomic mag. moment =   3.69908
atom    5   Tr[ns(na)] (up, down, total) =   4.90096  1.11362  6.01457
   spin  1
    eigenvalues: 
  0.979  0.979  0.980  0.981  0.981
    eigenvectors:
  0.000  0.000  1.000  0.000  0.000
  0.408  0.000  0.000  0.468  0.123
  0.000  0.408  0.000  0.123  0.468
  0.135  0.456  0.000  0.001  0.408
  0.456  0.135  0.000  0.408  0.001
    occupations:
  0.980 -0.000 -0.000 -0.000 -0.000
 -0.000  0.980 -0.000  0.001 -0.001
 -0.000 -0.000  0.980 -0.001 -0.001
 -0.000  0.001 -0.001  0.980  0.000
 -0.000 -0.001 -0.001  0.000  0.980
   spin  2
    eigenvalues: 
  0.163  0.163  0.163  0.312  0.312
    eigenvectors:
  1.000  0.000  0.000  0.000  0.000
  0.000  0.363  0.025  0.572  0.039
  0.000  0.025  0.363  0.039  0.572
  0.000  0.058  0.553  0.037  0.351
  0.000  0.553  0.058  0.351  0.037
    occupations:
  0.163 -0.000 -0.000 -0.000 -0.000
 -0.000  0.254 -0.000 -0.039  0.061
 -0.000 -0.000  0.254  0.061  0.039
 -0.000 -0.039  0.061  0.221  0.000
 -0.000  0.061  0.039  0.000  0.221
atomic mag. moment =   3.78734
atom    6   Tr[ns(na)] (up, down, total) =   4.87126  1.21215  6.08341
   spin  1
    eigenvalues: 
  0.966  0.966  0.979  0.980  0.980
    eigenvectors:
  0.000  0.000  1.000  0.000  0.000
  0.005  0.671  0.000  0.063  0.260
  0.671  0.005  0.000  0.260  0.063
  0.171  0.152  0.000  0.126  0.551
  0.152  0.171  0.000  0.551  0.126
    occupations:
  0.979 -0.000 -0.000 -0.000 -0.000
 -0.000  0.971 -0.000 -0.004 -0.005
 -0.000 -0.000  0.971 -0.005  0.004
 -0.000 -0.004 -0.005  0.976  0.000
 -0.000 -0.005  0.004  0.000  0.976
   spin  2
    eigenvalues: 
  0.168  0.181  0.181  0.341  0.341
    eigenvectors:
  1.000  0.000  0.000  0.000  0.000
  0.000  0.005  0.263  0.004  0.728
  0.000  0.263  0.005  0.728  0.004
  0.000  0.173  0.559  0.116  0.151
  0.000  0.559  0.173  0.151  0.116
    occupations:
  0.168 -0.000 -0.000 -0.000 -0.000
 -0.000  0.298 -0.000  0.057  0.043
 -0.000 -0.000  0.298  0.043 -0.057
 -0.000  0.057  0.043  0.224  0.000
 -0.000  0.043 -0.057  0.000  0.224
atomic mag. moment =   3.65911
N of occupied +U levels =   36.112590
 --- exit write_ns ---

     negative rho (up, down):  1.216E-01 1.216E-01
 --- in v_hubbard ---
Hubbard energy   -0.4255
 -------

     total cpu time spent up to now is     1224.8 secs

     total energy              =   -3195.21758568 Ry
     estimated scf accuracy    <       0.04626302 Ry

     total magnetization       =    -0.02 Bohr mag/cell
     absolute magnetization    =    27.63 Bohr mag/cell

     iteration #  3     ecut=    30.00 Ry     beta= 0.40
     CG style diagonalization
     ethr =  5.69E-06,  avg # of iterations =  3.3
 --- enter write_ns ---
 LDA+U parameters:
U( 3)     =  0.50000000
alpha( 3) = -0.20000000
U( 4)     =  0.50000000
alpha( 4) = -0.20000000
atom    1   Tr[ns(na)] (up, down, total) =   1.17173  4.90103  6.07276
   spin  1
    eigenvalues: 
  0.175  0.175  0.184  0.319  0.319
    eigenvectors:
  0.000  0.000  1.000  0.000  0.000
  0.083  0.299  0.000  0.028  0.590
  0.299  0.083  0.000  0.590  0.028
  0.169  0.449  0.000  0.206  0.177
  0.449  0.169  0.000  0.177  0.206
    occupations:
  0.184 -0.000 -0.000 -0.000 -0.000
 -0.000  0.264 -0.000  0.035  0.060
 -0.000 -0.000  0.264  0.060 -0.035
 -0.000  0.035  0.060  0.230  0.000
 -0.000  0.060 -0.035  0.000  0.230
   spin  2
    eigenvalues: 
  0.978  0.978  0.981  0.982  0.982
    eigenvectors:
  0.000  0.000  1.000  0.000  0.000
  0.035  0.426  0.000  0.086  0.454
  0.426  0.035  0.000  0.454  0.086
  0.216  0.323  0.000  0.127  0.333
  0.323  0.216  0.000  0.333  0.127
    occupations:
  0.981 -0.000 -0.000 -0.000 -0.000
 -0.000  0.980 -0.000 -0.001 -0.001
 -0.000 -0.000  0.980 -0.001  0.001
 -0.000 -0.001 -0.001  0.980  0.000
 -0.000 -0.001  0.001  0.000  0.980
atomic mag. moment =  -3.72930
atom    2   Tr[ns(na)] (up, down, total) =   1.24603  4.86427  6.11030
   spin  1
    eigenvalues: 
  0.172  0.190  0.190  0.347  0.347
    eigenvectors:
  1.000  0.000  0.000  0.000  0.000
  0.000  0.203  0.063  0.247  0.487
  0.000  0.063  0.203  0.487  0.247
  0.000  0.106  0.628  0.001  0.265
  0.000  0.628  0.106  0.265  0.001
    occupations:
  0.172 -0.000 -0.000 -0.000 -0.000
 -0.000  0.305 -0.000 -0.054  0.043
 -0.000 -0.000  0.305  0.043  0.054
 -0.000 -0.054  0.043  0.232  0.000
 -0.000  0.043  0.054  0.000  0.232
   spin  2
    eigenvalues: 
  0.962  0.962  0.979  0.980  0.980
    eigenvectors:
  0.000  0.000  1.000  0.000  0.000
  0.425  0.246  0.000  0.278  0.051
  0.246  0.425  0.000  0.051  0.278
  0.000  0.329  0.000  0.049  0.622
  0.329  0.000  0.000  0.622  0.049
    occupations:
  0.979 -0.000 -0.000 -0.000 -0.000
 -0.000  0.968 -0.000  0.005 -0.007
 -0.000 -0.000  0.968 -0.007 -0.005
 -0.000  0.005 -0.007  0.974  0.000
 -0.000 -0.007 -0.005  0.000  0.974
atomic mag. moment =  -3.61824
atom    3   Tr[ns(na)] (up, down, total) =   1.29718  4.87454  6.17172
   spin  1
    eigenvalues: 
  0.200  0.200  0.211  0.343  0.343
    eigenvectors:
  0.000  0.000  1.000  0.000  0.000
  0.364  0.247  0.000  0.291  0.099
  0.247  0.364  0.000  0.099  0.291
  0.021  0.368  0.000  0.091  0.519
  0.368  0.021  0.000  0.519  0.091
    occupations:
  0.211 -0.000 -0.000 -0.000 -0.000
 -0.000  0.256 -0.000 -0.056  0.042
 -0.000 -0.000  0.256  0.042  0.056
 -0.000 -0.056  0.042  0.287  0.000
 -0.000  0.042  0.056  0.000  0.287
   spin  2
    eigenvalues: 
  0.968  0.968  0.979  0.980  0.980
    eigenvectors:
  0.000  0.000  1.000  0.000  0.000
  0.430  0.104  0.000  0.332  0.135
  0.104  0.430  0.000  0.135  0.332
  0.045  0.422  0.000  0.022  0.512
  0.422  0.045  0.000  0.512  0.022
    occupations:
  0.979 -0.000 -0.000 -0.000 -0.000
 -0.000  0.974 -0.000  0.004 -0.004
 -0.000 -0.000  0.974 -0.004 -0.004
 -0.000  0.004 -0.004  0.974  0.000
 -0.000 -0.004 -0.004  0.000  0.974
atomic mag. moment =  -3.57735
atom    4   Tr[ns(na)] (up, down, total) =   4.86534  1.23181  6.09715
   spin  1
    eigenvalues: 
  0.964  0.964  0.978  0.979  0.979
    eigenvectors:
  0.000  0.000  1.000  0.000  0.000
  0.007  0.546  0.000  0.042  0.405
  0.546  0.007  0.000  0.405  0.042
  0.184  0.264  0.000  0.126  0.427
  0.264  0.184  0.000  0.427  0.126
    occupations:
  0.978 -0.000 -0.000 -0.000 -0.000
 -0.000  0.971 -0.000 -0.005 -0.005
 -0.000 -0.000  0.971 -0.005  0.005
 -0.000 -0.005 -0.005  0.972  0.000
 -0.000 -0.005  0.005  0.000  0.972
   spin  2
    eigenvalues: 
  0.186  0.186  0.197  0.332  0.332
    eigenvectors:
  0.000  0.000  1.000  0.000  0.000
  0.000  0.565  0.000  0.003  0.431
  0.565  0.000  0.000  0.431  0.003
  0.167  0.267  0.000  0.184  0.381
  0.267  0.167  0.000  0.381  0.184
    occupations:
  0.197 -0.000 -0.000 -0.000 -0.000
 -0.000  0.249 -0.000  0.056  0.046
 -0.000 -0.000  0.249  0.046 -0.056
 -0.000  0.056  0.046  0.268  0.000
 -0.000  0.046 -0.056  0.000  0.268
atomic mag. moment =   3.63353
atom    5   Tr[ns(na)] (up, down, total) =   4.89801  1.11228  6.01029
   spin  1
    eigenvalues: 
  0.977  0.977  0.981  0.982  0.982
    eigenvectors:
  0.000  0.000  1.000  0.000  0.000
  0.450  0.033  0.000  0.391  0.127
  0.033  0.450  0.000  0.127  0.391
  0.080  0.438  0.000  0.011  0.472
  0.438  0.080  0.000  0.472  0.011
    occupations:
  0.981 -0.000 -0.000 -0.000 -0.000
 -0.000  0.979 -0.000  0.001 -0.002
 -0.000 -0.000  0.979 -0.002 -0.001
 -0.000  0.001 -0.002  0.979  0.000
 -0.000 -0.002 -0.001  0.000  0.979
   spin  2
    eigenvalues: 
  0.151  0.165  0.165  0.316  0.316
    eigenvectors:
  1.000  0.000  0.000  0.000  0.000
  0.000  0.370  0.027  0.571  0.032
  0.000  0.027  0.370  0.032  0.571
  0.000  0.055  0.548  0.044  0.353
  0.000  0.548  0.055  0.353  0.044
    occupations:
  0.151 -0.000 -0.000 -0.000 -0.000
 -0.000  0.256 -0.000 -0.040  0.062
 -0.000 -0.000  0.256  0.062  0.040
 -0.000 -0.040  0.062  0.225  0.000
 -0.000  0.062  0.040  0.000  0.225
atomic mag. moment =   3.78573
atom    6   Tr[ns(na)] (up, down, total) =   4.85141  1.17779  6.02920
   spin  1
    eigenvalues: 
  0.957  0.957  0.979  0.980  0.980
    eigenvectors:
  0.000  0.000  1.000  0.000  0.000
  0.006  0.662  0.000  0.061  0.272
  0.662  0.006  0.000  0.272  0.061
  0.171  0.161  0.000  0.126  0.541
  0.161  0.171  0.000  0.541  0.126
    occupations:
  0.979 -0.000 -0.000 -0.000 -0.000
 -0.000  0.964 -0.000 -0.007 -0.009
 -0.000 -0.000  0.964 -0.009  0.007
 -0.000 -0.007 -0.009  0.972  0.000
 -0.000 -0.009  0.007  0.000  0.972
   spin  2
    eigenvalues: 
  0.163  0.171  0.171  0.336  0.336
    eigenvectors:
  1.000  0.000  0.000  0.000  0.000
  0.000  0.016  0.280  0.000  0.704
  0.000  0.280  0.016  0.704  0.000
  0.000  0.170  0.534  0.140  0.156
  0.000  0.534  0.170  0.156  0.140
    occupations:
  0.163 -0.000 -0.000 -0.000 -0.000
 -0.000  0.287 -0.000  0.055  0.051
 -0.000 -0.000  0.287  0.051 -0.055
 -0.000  0.055  0.051  0.220  0.000
 -0.000  0.051 -0.055  0.000  0.220
atomic mag. moment =   3.67361
N of occupied +U levels =   36.491419
 --- exit write_ns ---

     negative rho (up, down):  1.216E-01 1.216E-01
 --- in v_hubbard ---
Hubbard energy   -0.4255
 -------

     total cpu time spent up to now is     1319.8 secs

     total energy              =   -3195.22220767 Ry
     estimated scf accuracy    <       0.01531807 Ry

     total magnetization       =     0.09 Bohr mag/cell
     absolute magnetization    =    27.44 Bohr mag/cell

     iteration #  4     ecut=    30.00 Ry     beta= 0.40
     CG style diagonalization
     ethr =  5.21E-06,  avg # of iterations =  3.0
 --- enter write_ns ---
 LDA+U parameters:
U( 3)     =  0.50000000
alpha( 3) = -0.20000000
U( 4)     =  0.50000000
alpha( 4) = -0.20000000
atom    1   Tr[ns(na)] (up, down, total) =   1.11609  4.89864  6.01473
   spin  1
    eigenvalues: 
  0.154  0.165  0.165  0.316  0.316
    eigenvectors:
  1.000  0.000  0.000  0.000  0.000
  0.000  0.076  0.320  0.024  0.580
  0.000  0.320  0.076  0.580  0.024
  0.000  0.166  0.439  0.204  0.191
  0.000  0.439  0.166  0.191  0.204
    occupations:
  0.154 -0.000 -0.000 -0.000 -0.000
 -0.000  0.256 -0.000  0.040  0.062
 -0.000 -0.000  0.256  0.062 -0.040
 -0.000  0.040  0.062  0.225  0.000
 -0.000  0.062 -0.040  0.000  0.225
   spin  2
    eigenvalues: 
  0.977  0.977  0.981  0.982  0.982
    eigenvectors:
  0.000  0.000  1.000  0.000  0.000
  0.025  0.448  0.000  0.067  0.460
  0.448  0.025  0.000  0.460  0.067
  0.209  0.319  0.000  0.128  0.345
  0.319  0.209  0.000  0.345  0.128
    occupations:
  0.981 -0.000 -0.000 -0.000 -0.000
 -0.000  0.980 -0.000 -0.001 -0.002
 -0.000 -0.000  0.980 -0.002  0.001
 -0.000 -0.001 -0.002  0.979  0.000
 -0.000 -0.002  0.001  0.000  0.979
atomic mag. moment =  -3.78255
atom    2   Tr[ns(na)] (up, down, total) =   1.21453  4.85943  6.07397
   spin  1
    eigenvalues: 
  0.170  0.179  0.179  0.343  0.343
    eigenvectors:
  1.000  0.000  0.000  0.000  0.000
  0.000  0.225  0.061  0.286  0.428
  0.000  0.061  0.225  0.428  0.286
  0.000  0.093  0.621  0.000  0.286
  0.000  0.621  0.093  0.286  0.000
    occupations:
  0.170 -0.000 -0.000 -0.000 -0.000
 -0.000  0.296 -0.000 -0.056  0.049
 -0.000 -0.000  0.296  0.049  0.056
 -0.000 -0.056  0.049  0.226  0.000
 -0.000  0.049  0.056  0.000  0.226
   spin  2
    eigenvalues: 
  0.960  0.960  0.979  0.980  0.980
    eigenvectors:
  0.000  0.000  1.000  0.000  0.000
  0.427  0.243  0.000  0.278  0.052
  0.243  0.427  0.000  0.052  0.278
  0.000  0.330  0.000  0.049  0.621
  0.330  0.000  0.000  0.621  0.049
    occupations:
  0.979 -0.000 -0.000 -0.000 -0.000
 -0.000  0.967 -0.000  0.006 -0.007
 -0.000 -0.000  0.967 -0.007 -0.006
 -0.000  0.006 -0.007  0.974  0.000
 -0.000 -0.007 -0.006  0.000  0.974
atomic mag. moment =  -3.64490
atom    3   Tr[ns(na)] (up, down, total) =   1.24591  4.86690  6.11281
   spin  1
    eigenvalues: 
  0.189  0.189  0.200  0.334  0.334
    eigenvectors:
  0.000  0.000  1.000  0.000  0.000
  0.373  0.201  0.000  0.327  0.100
  0.201  0.373  0.000  0.100  0.327
  0.027  0.400  0.000  0.080  0.494
  0.400  0.027  0.000  0.494  0.080
    occupations:
  0.200 -0.000 -0.000 -0.000 -0.000
 -0.000  0.251 -0.000 -0.056  0.045
 -0.000 -0.000  0.251  0.045  0.056
 -0.000 -0.056  0.045  0.272  0.000
 -0.000  0.045  0.056  0.000  0.272
   spin  2
    eigenvalues: 
  0.965  0.965  0.979  0.979  0.979
    eigenvectors:
  0.000  0.000  1.000  0.000  0.000
  0.438  0.113  0.000  0.326  0.123
  0.113  0.438  0.000  0.123  0.326
  0.038  0.411  0.000  0.025  0.526
  0.411  0.038  0.000  0.526  0.025
    occupations:
  0.979 -0.000 -0.000 -0.000 -0.000
 -0.000  0.971 -0.000  0.005 -0.005
 -0.000 -0.000  0.971 -0.005 -0.005
 -0.000  0.005 -0.005  0.973  0.000
 -0.000 -0.005 -0.005  0.000  0.973
atomic mag. moment =  -3.62098
atom    4   Tr[ns(na)] (up, down, total) =   4.86880  1.26153  6.13033
   spin  1
    eigenvalues: 
  0.966  0.966  0.979  0.979  0.979
    eigenvectors:
  0.000  0.000  1.000  0.000  0.000
  0.007  0.540  0.000  0.041  0.412
  0.540  0.007  0.000  0.412  0.041
  0.184  0.269  0.000  0.126  0.421
  0.269  0.184  0.000  0.421  0.126
    occupations:
  0.979 -0.000 -0.000 -0.000 -0.000
 -0.000  0.972 -0.000 -0.005 -0.005
 -0.000 -0.000  0.972 -0.005  0.005
 -0.000 -0.005 -0.005  0.973  0.000
 -0.000 -0.005  0.005  0.000  0.973
   spin  2
    eigenvalues: 
  0.193  0.193  0.203  0.337  0.337
    eigenvectors:
  0.000  0.000  1.000  0.000  0.000
  0.000  0.588  0.000  0.003  0.409
  0.588  0.000  0.000  0.409  0.003
  0.163  0.249  0.000  0.185  0.403
  0.249  0.163  0.000  0.403  0.185
    occupations:
  0.203 -0.000 -0.000 -0.000 -0.000
 -0.000  0.252 -0.000  0.055  0.044
 -0.000 -0.000  0.252  0.044 -0.055
 -0.000  0.055  0.044  0.277  0.000
 -0.000  0.044 -0.055  0.000  0.277
atomic mag. moment =   3.60727
atom    5   Tr[ns(na)] (up, down, total) =   4.90006  1.18231  6.08237
   spin  1
    eigenvalues: 
  0.978  0.978  0.981  0.982  0.982
    eigenvectors:
  0.000  0.000  1.000  0.000  0.000
  0.445  0.023  0.000  0.404  0.128
  0.023  0.445  0.000  0.128  0.404
  0.089  0.443  0.000  0.008  0.460
  0.443  0.089  0.000  0.460  0.008
    occupations:
  0.981 -0.000 -0.000 -0.000 -0.000
 -0.000  0.980 -0.000  0.001 -0.001
 -0.000 -0.000  0.980 -0.001 -0.001
 -0.000  0.001 -0.001  0.980  0.000
 -0.000 -0.001 -0.001  0.000  0.980
   spin  2
    eigenvalues: 
  0.177  0.177  0.190  0.320  0.320
    eigenvectors:
  0.000  0.000  1.000  0.000  0.000
  0.368  0.017  0.000  0.597  0.019
  0.017  0.368  0.000  0.019  0.597
  0.063  0.553  0.000  0.047  0.337
  0.553  0.063  0.000  0.337  0.047
    occupations:
  0.190 -0.000 -0.000 -0.000 -0.000
 -0.000  0.265 -0.000 -0.036  0.060
 -0.000 -0.000  0.265  0.060  0.036
 -0.000 -0.036  0.060  0.232  0.000
 -0.000  0.060  0.036  0.000  0.232
atomic mag. moment =   3.71775
atom    6   Tr[ns(na)] (up, down, total) =   4.86176  1.24392  6.10568
   spin  1
    eigenvalues: 
  0.961  0.961  0.979  0.980  0.980
    eigenvectors:
  0.000  0.000  1.000  0.000  0.000
  0.005  0.665  0.000  0.060  0.269
  0.665  0.005  0.000  0.269  0.060
  0.170  0.159  0.000  0.126  0.544
  0.159  0.170  0.000  0.544  0.126
    occupations:
  0.979 -0.000 -0.000 -0.000 -0.000
 -0.000  0.967 -0.000 -0.006 -0.007
 -0.000 -0.000  0.967 -0.007  0.006
 -0.000 -0.006 -0.007  0.974  0.000
 -0.000 -0.007  0.006  0.000  0.974
   spin  2
    eigenvalues: 
  0.172  0.190  0.190  0.346  0.346
    eigenvectors:
  1.000  0.000  0.000  0.000  0.000
  0.000  0.007  0.260  0.002  0.731
  0.000  0.260  0.007  0.731  0.002
  0.000  0.178  0.555  0.121  0.146
  0.000  0.555  0.178  0.146  0.121
    occupations:
  0.172 -0.000 -0.000 -0.000 -0.000
 -0.000  0.305 -0.000  0.054  0.044
 -0.000 -0.000  0.305  0.044 -0.054
 -0.000  0.054  0.044  0.232  0.000
 -0.000  0.044 -0.054  0.000  0.232
atomic mag. moment =   3.61784
N of occupied +U levels =   36.519896
 --- exit write_ns ---

     negative rho (up, down):  1.216E-01 1.216E-01
 --- in v_hubbard ---
Hubbard energy   -0.4255
 -------

     total cpu time spent up to now is     1410.3 secs

     total energy              =   -3195.22309810 Ry
     estimated scf accuracy    <       0.00430901 Ry

     total magnetization       =    -0.09 Bohr mag/cell
     absolute magnetization    =    27.42 Bohr mag/cell

     iteration #  5     ecut=    30.00 Ry     beta= 0.40
     CG style diagonalization
     ethr =  1.47E-06,  avg # of iterations =  3.0
 --- enter write_ns ---
 LDA+U parameters:
U( 3)     =  0.50000000
alpha( 3) = -0.20000000
U( 4)     =  0.50000000
alpha( 4) = -0.20000000
atom    1   Tr[ns(na)] (up, down, total) =   1.15230  4.89917  6.05146
   spin  1
    eigenvalues: 
  0.171  0.171  0.173  0.318  0.318
    eigenvectors:
  0.000  0.000  1.000  0.000  0.000
  0.079  0.311  0.000  0.026  0.584
  0.311  0.079  0.000  0.584  0.026
  0.168  0.442  0.000  0.205  0.185
  0.442  0.168  0.000  0.185  0.205
    occupations:
  0.173 -0.000 -0.000 -0.000 -0.000
 -0.000  0.261 -0.000  0.037  0.061
 -0.000 -0.000  0.261  0.061 -0.037
 -0.000  0.037  0.061  0.229  0.000
 -0.000  0.061 -0.037  0.000  0.229
   spin  2
    eigenvalues: 
  0.978  0.978  0.981  0.982  0.982
    eigenvectors:
  0.000  0.000  1.000  0.000  0.000
  0.025  0.445  0.000  0.066  0.465
  0.445  0.025  0.000  0.465  0.066
  0.209  0.322  0.000  0.128  0.341
  0.322  0.209  0.000  0.341  0.128
    occupations:
  0.981 -0.000 -0.000 -0.000 -0.000
 -0.000  0.980 -0.000 -0.001 -0.002
 -0.000 -0.000  0.980 -0.002  0.001
 -0.000 -0.001 -0.002  0.979  0.000
 -0.000 -0.002  0.001  0.000  0.979
atomic mag. moment =  -3.74687
atom    2   Tr[ns(na)] (up, down, total) =   1.23801  4.86174  6.09976
   spin  1
    eigenvalues: 
  0.172  0.187  0.187  0.346  0.346
    eigenvectors:
  1.000  0.000  0.000  0.000  0.000
  0.000  0.213  0.061  0.262  0.464
  0.000  0.061  0.213  0.464  0.262
  0.000  0.101  0.624  0.001  0.273
  0.000  0.624  0.101  0.273  0.001
    occupations:
  0.172 -0.000 -0.000 -0.000 -0.000
 -0.000  0.302 -0.000 -0.055  0.046
 -0.000 -0.000  0.302  0.046  0.055
 -0.000 -0.055  0.046  0.230  0.000
 -0.000  0.046  0.055  0.000  0.230
   spin  2
    eigenvalues: 
  0.961  0.961  0.979  0.980  0.980
    eigenvectors:
  0.000  0.000  1.000  0.000  0.000
  0.423  0.248  0.000  0.278  0.052
  0.248  0.423  0.000  0.052  0.278
  0.000  0.329  0.000  0.049  0.622
  0.329  0.000  0.000  0.622  0.049
    occupations:
  0.979 -0.000 -0.000 -0.000 -0.000
 -0.000  0.967 -0.000  0.006 -0.007
 -0.000 -0.000  0.967 -0.007 -0.006
 -0.000  0.006 -0.007  0.974  0.000
 -0.000 -0.007 -0.006  0.000  0.974
atomic mag. moment =  -3.62373
atom    3   Tr[ns(na)] (up, down, total) =   1.24225  4.86590  6.10814
   spin  1
    eigenvalues: 
  0.188  0.188  0.199  0.333  0.333
    eigenvectors:
  0.000  0.000  1.000  0.000  0.000
  0.373  0.202  0.000  0.327  0.097
  0.202  0.373  0.000  0.097  0.327
  0.026  0.399  0.000  0.081  0.495
  0.399  0.026  0.000  0.495  0.081
    occupations:
  0.199 -0.000 -0.000 -0.000 -0.000
 -0.000  0.250 -0.000 -0.055  0.045
 -0.000 -0.000  0.250  0.045  0.055
 -0.000 -0.055  0.045  0.272  0.000
 -0.000  0.045  0.055  0.000  0.272
   spin  2
    eigenvalues: 
  0.965  0.965  0.978  0.979  0.979
    eigenvectors:
  0.000  0.000  1.000  0.000  0.000
  0.438  0.115  0.000  0.325  0.122
  0.115  0.438  0.000  0.122  0.325
  0.037  0.410  0.000  0.025  0.528
  0.410  0.037  0.000  0.528  0.025
    occupations:
  0.978 -0.000 -0.000 -0.000 -0.000
 -0.000  0.971 -0.000  0.005 -0.005
 -0.000 -0.000  0.971 -0.005 -0.005
 -0.000  0.005 -0.005  0.973  0.000
 -0.000 -0.005 -0.005  0.000  0.973
atomic mag. moment =  -3.62365
atom    4   Tr[ns(na)] (up, down, total) =   4.86693  1.24944  6.11637
   spin  1
    eigenvalues: 
  0.965  0.965  0.979  0.979  0.979
    eigenvectors:
  0.000  0.000  1.000  0.000  0.000
  0.007  0.545  0.000  0.041  0.407
  0.545  0.007  0.000  0.407  0.041
  0.183  0.265  0.000  0.126  0.426
  0.265  0.183  0.000  0.426  0.126
    occupations:
  0.979 -0.000 -0.000 -0.000 -0.000
 -0.000  0.971 -0.000 -0.005 -0.005
 -0.000 -0.000  0.971 -0.005  0.005
 -0.000 -0.005 -0.005  0.973  0.000
 -0.000 -0.005  0.005  0.000  0.973
   spin  2
    eigenvalues: 
  0.190  0.190  0.200  0.335  0.335
    eigenvectors:
  0.000  0.000  1.000  0.000  0.000
  0.000  0.578  0.000  0.003  0.419
  0.578  0.000  0.000  0.419  0.003
  0.165  0.257  0.000  0.185  0.393
  0.257  0.165  0.000  0.393  0.185
    occupations:
  0.200 -0.000 -0.000 -0.000 -0.000
 -0.000  0.251 -0.000  0.055  0.045
 -0.000 -0.000  0.251  0.045 -0.055
 -0.000  0.055  0.045  0.274  0.000
 -0.000  0.045 -0.055  0.000  0.274
atomic mag. moment =   3.61749
atom    5   Tr[ns(na)] (up, down, total) =   4.89922  1.14745  6.04668
   spin  1
    eigenvalues: 
  0.978  0.978  0.981  0.982  0.982
    eigenvectors:
  0.000  0.000  1.000  0.000  0.000
  0.442  0.025  0.000  0.400  0.132
  0.025  0.442  0.000  0.132  0.400
  0.089  0.444  0.000  0.008  0.459
  0.444  0.089  0.000  0.459  0.008
    occupations:
  0.981 -0.000 -0.000 -0.000 -0.000
 -0.000  0.980 -0.000  0.001 -0.002
 -0.000 -0.000  0.980 -0.002 -0.001
 -0.000  0.001 -0.002  0.979  0.000
 -0.000 -0.002 -0.001  0.000  0.979
   spin  2
    eigenvalues: 
  0.170  0.170  0.172  0.317  0.317
    eigenvectors:
  0.000  0.000  1.000  0.000  0.000
  0.370  0.021  0.000  0.585  0.025
  0.021  0.370  0.000  0.025  0.585
  0.059  0.550  0.000  0.046  0.345
  0.550  0.059  0.000  0.345  0.046
    occupations:
  0.172 -0.000 -0.000 -0.000 -0.000
 -0.000  0.260 -0.000 -0.038  0.061
 -0.000 -0.000  0.260  0.061  0.038
 -0.000 -0.038  0.061  0.228  0.000
 -0.000  0.061  0.038  0.000  0.228
atomic mag. moment =   3.75177
atom    6   Tr[ns(na)] (up, down, total) =   4.86263  1.24055  6.10317
   spin  1
    eigenvalues: 
  0.961  0.961  0.979  0.980  0.980
    eigenvectors:
  0.000  0.000  1.000  0.000  0.000
  0.005  0.666  0.000  0.060  0.269
  0.666  0.005  0.000  0.269  0.060
  0.170  0.159  0.000  0.126  0.545
  0.159  0.170  0.000  0.545  0.126
    occupations:
  0.979 -0.000 -0.000 -0.000 -0.000
 -0.000  0.968 -0.000 -0.006 -0.007
 -0.000 -0.000  0.968 -0.007  0.006
 -0.000 -0.006 -0.007  0.974  0.000
 -0.000 -0.007  0.006  0.000  0.974
   spin  2
    eigenvalues: 
  0.173  0.187  0.187  0.347  0.347
    eigenvectors:
  1.000  0.000  0.000  0.000  0.000
  0.000  0.008  0.264  0.002  0.726
  0.000  0.264  0.008  0.726  0.002
  0.000  0.176  0.552  0.124  0.149
  0.000  0.552  0.176  0.149  0.124
    occupations:
  0.173 -0.000 -0.000 -0.000 -0.000
 -0.000  0.303 -0.000  0.055  0.045
 -0.000 -0.000  0.303  0.045 -0.055
 -0.000  0.055  0.045  0.231  0.000
 -0.000  0.045 -0.055  0.000  0.231
atomic mag. moment =   3.62208
N of occupied +U levels =   36.525584
 --- exit write_ns ---

     negative rho (up, down):  1.216E-01 1.216E-01
 --- in v_hubbard ---
Hubbard energy   -0.4255
 -------

     total cpu time spent up to now is     1509.1 secs

     total energy              =   -3195.22325999 Ry
     estimated scf accuracy    <       0.00024207 Ry

     total magnetization       =     0.00 Bohr mag/cell
     absolute magnetization    =    27.41 Bohr mag/cell

     iteration #  6     ecut=    30.00 Ry     beta= 0.40
     CG style diagonalization
     ethr =  8.23E-08,  avg # of iterations =  3.0
 --- enter write_ns ---
 LDA+U parameters:
U( 3)     =  0.50000000
alpha( 3) = -0.20000000
U( 4)     =  0.50000000
alpha( 4) = -0.20000000
atom    1   Tr[ns(na)] (up, down, total) =   1.15121  4.89895  6.05016
   spin  1
    eigenvalues: 
  0.171  0.171  0.174  0.318  0.318
    eigenvectors:
  0.000  0.000  1.000  0.000  0.000
  0.080  0.310  0.000  0.027  0.584
  0.310  0.080  0.000  0.584  0.027
  0.168  0.442  0.000  0.205  0.184
  0.442  0.168  0.000  0.184  0.205
    occupations:
  0.174 -0.000 -0.000 -0.000 -0.000
 -0.000  0.260 -0.000  0.037  0.061
 -0.000 -0.000  0.260  0.061 -0.037
 -0.000  0.037  0.061  0.228  0.000
 -0.000  0.061 -0.037  0.000  0.228
   spin  2
    eigenvalues: 
  0.978  0.978  0.981  0.982  0.982
    eigenvectors:
  0.000  0.000  1.000  0.000  0.000
  0.024  0.446  0.000  0.066  0.463
  0.446  0.024  0.000  0.463  0.066
  0.209  0.320  0.000  0.128  0.343
  0.320  0.209  0.000  0.343  0.128
    occupations:
  0.981 -0.000 -0.000 -0.000 -0.000
 -0.000  0.980 -0.000 -0.001 -0.002
 -0.000 -0.000  0.980 -0.002  0.001
 -0.000 -0.001 -0.002  0.979  0.000
 -0.000 -0.002  0.001  0.000  0.979
atomic mag. moment =  -3.74774
atom    2   Tr[ns(na)] (up, down, total) =   1.23657  4.86110  6.09767
   spin  1
    eigenvalues: 
  0.171  0.187  0.187  0.346  0.346
    eigenvectors:
  1.000  0.000  0.000  0.000  0.000
  0.000  0.211  0.062  0.261  0.466
  0.000  0.062  0.211  0.466  0.261
  0.000  0.102  0.626  0.001  0.272
  0.000  0.626  0.102  0.272  0.001
    occupations:
  0.171 -0.000 -0.000 -0.000 -0.000
 -0.000  0.302 -0.000 -0.054  0.045
 -0.000 -0.000  0.302  0.045  0.054
 -0.000 -0.054  0.045  0.230  0.000
 -0.000  0.045  0.054  0.000  0.230
   spin  2
    eigenvalues: 
  0.961  0.961  0.979  0.980  0.980
    eigenvectors:
  0.000  0.000  1.000  0.000  0.000
  0.424  0.247  0.000  0.278  0.052
  0.247  0.424  0.000  0.052  0.278
  0.000  0.329  0.000  0.049  0.621
  0.329  0.000  0.000  0.621  0.049
    occupations:
  0.979 -0.000 -0.000 -0.000 -0.000
 -0.000  0.967 -0.000  0.006 -0.007
 -0.000 -0.000  0.967 -0.007 -0.006
 -0.000  0.006 -0.007  0.974  0.000
 -0.000 -0.007 -0.006  0.000  0.974
atomic mag. moment =  -3.62453
atom    3   Tr[ns(na)] (up, down, total) =   1.25265  4.86685  6.11950
   spin  1
    eigenvalues: 
  0.191  0.191  0.201  0.335  0.335
    eigenvectors:
  0.000  0.000  1.000  0.000  0.000
  0.372  0.209  0.000  0.321  0.098
  0.209  0.372  0.000  0.098  0.321
  0.025  0.394  0.000  0.083  0.498
  0.394  0.025  0.000  0.498  0.083
    occupations:
  0.201 -0.000 -0.000 -0.000 -0.000
 -0.000  0.251 -0.000 -0.055  0.045
 -0.000 -0.000  0.251  0.045  0.055
 -0.000 -0.055  0.045  0.275  0.000
 -0.000  0.045  0.055  0.000  0.275
   spin  2
    eigenvalues: 
  0.965  0.965  0.979  0.979  0.979
    eigenvectors:
  0.000  0.000  1.000  0.000  0.000
  0.437  0.115  0.000  0.325  0.123
  0.115  0.437  0.000  0.123  0.325
  0.037  0.411  0.000  0.025  0.527
  0.411  0.037  0.000  0.527  0.025
    occupations:
  0.979 -0.000 -0.000 -0.000 -0.000
 -0.000  0.971 -0.000  0.005 -0.005
 -0.000 -0.000  0.971 -0.005 -0.005
 -0.000  0.005 -0.005  0.973  0.000
 -0.000 -0.005 -0.005  0.000  0.973
atomic mag. moment =  -3.61420
atom    4   Tr[ns(na)] (up, down, total) =   4.86678  1.24990  6.11667
   spin  1
    eigenvalues: 
  0.965  0.965  0.979  0.979  0.979
    eigenvectors:
  0.000  0.000  1.000  0.000  0.000
  0.007  0.545  0.000  0.041  0.408
  0.545  0.007  0.000  0.408  0.041
  0.183  0.265  0.000  0.126  0.426
  0.265  0.183  0.000  0.426  0.126
    occupations:
  0.979 -0.000 -0.000 -0.000 -0.000
 -0.000  0.971 -0.000 -0.005 -0.005
 -0.000 -0.000  0.971 -0.005  0.005
 -0.000 -0.005 -0.005  0.973  0.000
 -0.000 -0.005  0.005  0.000  0.973
   spin  2
    eigenvalues: 
  0.190  0.190  0.200  0.335  0.335
    eigenvectors:
  0.000  0.000  1.000  0.000  0.000
  0.000  0.579  0.000  0.003  0.419
  0.579  0.000  0.000  0.419  0.003
  0.164  0.257  0.000  0.185  0.394
  0.257  0.164  0.000  0.394  0.185
    occupations:
  0.200 -0.000 -0.000 -0.000 -0.000
 -0.000  0.251 -0.000  0.056  0.045
 -0.000 -0.000  0.251  0.045 -0.056
 -0.000  0.056  0.045  0.274  0.000
 -0.000  0.045 -0.056  0.000  0.274
atomic mag. moment =   3.61688
atom    5   Tr[ns(na)] (up, down, total) =   4.89875  1.14341  6.04216
   spin  1
    eigenvalues: 
  0.977  0.977  0.981  0.982  0.982
    eigenvectors:
  0.000  0.000  1.000  0.000  0.000
  0.444  0.029  0.000  0.396  0.131
  0.029  0.444  0.000  0.131  0.396
  0.085  0.442  0.000  0.009  0.464
  0.442  0.085  0.000  0.464  0.009
    occupations:
  0.981 -0.000 -0.000 -0.000 -0.000
 -0.000  0.980 -0.000  0.001 -0.002
 -0.000 -0.000  0.980 -0.002 -0.001
 -0.000  0.001 -0.002  0.979  0.000
 -0.000 -0.002 -0.001  0.000  0.979
   spin  2
    eigenvalues: 
  0.170  0.170  0.170  0.317  0.317
    eigenvectors:
  0.000  0.000  1.000  0.000  0.000
  0.371  0.021  0.000  0.584  0.024
  0.021  0.371  0.000  0.024  0.584
  0.059  0.549  0.000  0.047  0.345
  0.549  0.059  0.000  0.345  0.047
    occupations:
  0.170 -0.000 -0.000 -0.000 -0.000
 -0.000  0.259 -0.000 -0.038  0.061
 -0.000 -0.000  0.259  0.061  0.038
 -0.000 -0.038  0.061  0.227  0.000
 -0.000  0.061  0.038  0.000  0.227
atomic mag. moment =   3.75535
atom    6   Tr[ns(na)] (up, down, total) =   4.86106  1.23706  6.09812
   spin  1
    eigenvalues: 
  0.961  0.961  0.979  0.980  0.980
    eigenvectors:
  0.000  0.000  1.000  0.000  0.000
  0.005  0.666  0.000  0.060  0.270
  0.666  0.005  0.000  0.270  0.060
  0.170  0.159  0.000  0.127  0.544
  0.159  0.170  0.000  0.544  0.127
    occupations:
  0.979 -0.000 -0.000 -0.000 -0.000
 -0.000  0.967 -0.000 -0.006 -0.007
 -0.000 -0.000  0.967 -0.007  0.006
 -0.000 -0.006 -0.007  0.974  0.000
 -0.000 -0.007  0.006  0.000  0.974
   spin  2
    eigenvalues: 
  0.172  0.186  0.186  0.346  0.346
    eigenvectors:
  1.000  0.000  0.000  0.000  0.000
  0.000  0.009  0.265  0.002  0.724
  0.000  0.265  0.009  0.724  0.002
  0.000  0.175  0.550  0.126  0.149
  0.000  0.550  0.175  0.149  0.126
    occupations:
  0.172 -0.000 -0.000 -0.000 -0.000
 -0.000  0.302 -0.000  0.055  0.046
 -0.000 -0.000  0.302  0.046 -0.055
 -0.000  0.055  0.046  0.230  0.000
 -0.000  0.046 -0.055  0.000  0.230
atomic mag. moment =   3.62401
N of occupied +U levels =   36.524288
 --- exit write_ns ---

     negative rho (up, down):  1.216E-01 1.216E-01
 --- in v_hubbard ---
Hubbard energy   -0.4254
 -------

     total cpu time spent up to now is     1596.3 secs

     total energy              =   -3195.22327310 Ry
     estimated scf accuracy    <       0.00012241 Ry

     total magnetization       =     0.01 Bohr mag/cell
     absolute magnetization    =    27.40 Bohr mag/cell

     iteration #  7     ecut=    30.00 Ry     beta= 0.40
     CG style diagonalization
     ethr =  4.16E-08,  avg # of iterations =  3.0
 --- enter write_ns ---
 LDA+U parameters:
U( 3)     =  0.50000000
alpha( 3) = -0.20000000
U( 4)     =  0.50000000
alpha( 4) = -0.20000000
atom    1   Tr[ns(na)] (up, down, total) =   1.15088  4.89911  6.05000
   spin  1
    eigenvalues: 
  0.171  0.171  0.174  0.318  0.318
    eigenvectors:
  0.000  0.000  1.000  0.000  0.000
  0.079  0.312  0.000  0.026  0.583
  0.312  0.079  0.000  0.583  0.026
  0.169  0.441  0.000  0.206  0.185
  0.441  0.169  0.000  0.185  0.206
    occupations:
  0.174 -0.000 -0.000 -0.000 -0.000
 -0.000  0.260 -0.000  0.037  0.061
 -0.000 -0.000  0.260  0.061 -0.037
 -0.000  0.037  0.061  0.228  0.000
 -0.000  0.061 -0.037  0.000  0.228
   spin  2
    eigenvalues: 
  0.978  0.978  0.981  0.982  0.982
    eigenvectors:
  0.000  0.000  1.000  0.000  0.000
  0.025  0.445  0.000  0.067  0.462
  0.445  0.025  0.000  0.462  0.067
  0.209  0.320  0.000  0.128  0.343
  0.320  0.209  0.000  0.343  0.128
    occupations:
  0.981 -0.000 -0.000 -0.000 -0.000
 -0.000  0.980 -0.000 -0.001 -0.002
 -0.000 -0.000  0.980 -0.002  0.001
 -0.000 -0.001 -0.002  0.979  0.000
 -0.000 -0.002  0.001  0.000  0.979
atomic mag. moment =  -3.74823
atom    2   Tr[ns(na)] (up, down, total) =   1.23854  4.86136  6.09991
   spin  1
    eigenvalues: 
  0.172  0.187  0.187  0.346  0.346
    eigenvectors:
  1.000  0.000  0.000  0.000  0.000
  0.000  0.211  0.062  0.260  0.467
  0.000  0.062  0.211  0.467  0.260
  0.000  0.102  0.625  0.001  0.272
  0.000  0.625  0.102  0.272  0.001
    occupations:
  0.172 -0.000 -0.000 -0.000 -0.000
 -0.000  0.303 -0.000 -0.055  0.045
 -0.000 -0.000  0.303  0.045  0.055
 -0.000 -0.055  0.045  0.230  0.000
 -0.000  0.045  0.055  0.000  0.230
   spin  2
    eigenvalues: 
  0.961  0.961  0.979  0.980  0.980
    eigenvectors:
  0.000  0.000  1.000  0.000  0.000
  0.423  0.248  0.000  0.278  0.052
  0.248  0.423  0.000  0.052  0.278
  0.000  0.329  0.000  0.049  0.621
  0.329  0.000  0.000  0.621  0.049
    occupations:
  0.979 -0.000 -0.000 -0.000 -0.000
 -0.000  0.967 -0.000  0.006 -0.007
 -0.000 -0.000  0.967 -0.007 -0.006
 -0.000  0.006 -0.007  0.974  0.000
 -0.000 -0.007 -0.006  0.000  0.974
atomic mag. moment =  -3.62282
atom    3   Tr[ns(na)] (up, down, total) =   1.25008  4.86667  6.11675
   spin  1
    eigenvalues: 
  0.190  0.190  0.200  0.335  0.335
    eigenvectors:
  0.000  0.000  1.000  0.000  0.000
  0.371  0.209  0.000  0.322  0.098
  0.209  0.371  0.000  0.098  0.322
  0.025  0.395  0.000  0.082  0.498
  0.395  0.025  0.000  0.498  0.082
    occupations:
  0.200 -0.000 -0.000 -0.000 -0.000
 -0.000  0.251 -0.000 -0.056  0.045
 -0.000 -0.000  0.251  0.045  0.056
 -0.000 -0.056  0.045  0.274  0.000
 -0.000  0.045  0.056  0.000  0.274
   spin  2
    eigenvalues: 
  0.965  0.965  0.979  0.979  0.979
    eigenvectors:
  0.000  0.000  1.000  0.000  0.000
  0.438  0.113  0.000  0.326  0.124
  0.113  0.438  0.000  0.124  0.326
  0.038  0.411  0.000  0.025  0.526
  0.411  0.038  0.000  0.526  0.025
    occupations:
  0.979 -0.000 -0.000 -0.000 -0.000
 -0.000  0.971 -0.000  0.005 -0.005
 -0.000 -0.000  0.971 -0.005 -0.005
 -0.000  0.005 -0.005  0.973  0.000
 -0.000 -0.005 -0.005  0.000  0.973
atomic mag. moment =  -3.61660
atom    4   Tr[ns(na)] (up, down, total) =   4.86642  1.24874  6.11516
   spin  1
    eigenvalues: 
  0.965  0.965  0.979  0.979  0.979
    eigenvectors:
  0.000  0.000  1.000  0.000  0.000
  0.007  0.545  0.000  0.041  0.407
  0.545  0.007  0.000  0.407  0.041
  0.183  0.265  0.000  0.126  0.426
  0.265  0.183  0.000  0.426  0.126
    occupations:
  0.979 -0.000 -0.000 -0.000 -0.000
 -0.000  0.971 -0.000 -0.005 -0.005
 -0.000 -0.000  0.971 -0.005  0.005
 -0.000 -0.005 -0.005  0.973  0.000
 -0.000 -0.005  0.005  0.000  0.973
   spin  2
    eigenvalues: 
  0.190  0.190  0.200  0.335  0.335
    eigenvectors:
  0.000  0.000  1.000  0.000  0.000
  0.000  0.579  0.000  0.003  0.418
  0.579  0.000  0.000  0.418  0.003
  0.164  0.257  0.000  0.184  0.395
  0.257  0.164  0.000  0.395  0.184
    occupations:
  0.200 -0.000 -0.000 -0.000 -0.000
 -0.000  0.251 -0.000  0.056  0.045
 -0.000 -0.000  0.251  0.045 -0.056
 -0.000  0.056  0.045  0.274  0.000
 -0.000  0.045 -0.056  0.000  0.274
atomic mag. moment =   3.61768
atom    5   Tr[ns(na)] (up, down, total) =   4.89903  1.14854  6.04757
   spin  1
    eigenvalues: 
  0.978  0.978  0.981  0.982  0.982
    eigenvectors:
  0.000  0.000  1.000  0.000  0.000
  0.443  0.027  0.000  0.398  0.132
  0.027  0.443  0.000  0.132  0.398
  0.086  0.443  0.000  0.009  0.462
  0.443  0.086  0.000  0.462  0.009
    occupations:
  0.981 -0.000 -0.000 -0.000 -0.000
 -0.000  0.980 -0.000  0.001 -0.002
 -0.000 -0.000  0.980 -0.002 -0.001
 -0.000  0.001 -0.002  0.979  0.000
 -0.000 -0.002 -0.001  0.000  0.979
   spin  2
    eigenvalues: 
  0.170  0.170  0.173  0.318  0.318
    eigenvectors:
  0.000  0.000  1.000  0.000  0.000
  0.370  0.021  0.000  0.584  0.025
  0.021  0.370  0.000  0.025  0.584
  0.059  0.550  0.000  0.046  0.345
  0.550  0.059  0.000  0.345  0.046
    occupations:
  0.173 -0.000 -0.000 -0.000 -0.000
 -0.000  0.260 -0.000 -0.038  0.061
 -0.000 -0.000  0.260  0.061  0.038
 -0.000 -0.038  0.061  0.228  0.000
 -0.000  0.061  0.038  0.000  0.228
atomic mag. moment =   3.75049
atom    6   Tr[ns(na)] (up, down, total) =   4.86085  1.23405  6.09490
   spin  1
    eigenvalues: 
  0.961  0.961  0.979  0.980  0.980
    eigenvectors:
  0.000  0.000  1.000  0.000  0.000
  0.005  0.665  0.000  0.060  0.270
  0.665  0.005  0.000  0.270  0.060
  0.170  0.159  0.000  0.126  0.544
  0.159  0.170  0.000  0.544  0.126
    occupations:
  0.979 -0.000 -0.000 -0.000 -0.000
 -0.000  0.967 -0.000 -0.006 -0.007
 -0.000 -0.000  0.967 -0.007  0.006
 -0.000 -0.006 -0.007  0.974  0.000
 -0.000 -0.007  0.006  0.000  0.974
   spin  2
    eigenvalues: 
  0.171  0.186  0.186  0.346  0.346
    eigenvectors:
  1.000  0.000  0.000  0.000  0.000
  0.000  0.009  0.265  0.002  0.724
  0.000  0.265  0.009  0.724  0.002
  0.000  0.176  0.550  0.125  0.149
  0.000  0.550  0.176  0.149  0.125
    occupations:
  0.171 -0.000 -0.000 -0.000 -0.000
 -0.000  0.302 -0.000  0.055  0.046
 -0.000 -0.000  0.302  0.046 -0.055
 -0.000  0.055  0.046  0.230  0.000
 -0.000  0.046 -0.055  0.000  0.230
atomic mag. moment =   3.62680
N of occupied +U levels =   36.524289
 --- exit write_ns ---

     negative rho (up, down):  1.216E-01 1.216E-01
 --- in v_hubbard ---
Hubbard energy   -0.4254
 -------

     total cpu time spent up to now is     1684.1 secs

     total energy              =   -3195.22327990 Ry
     estimated scf accuracy    <       0.00004819 Ry

     total magnetization       =     0.00 Bohr mag/cell
     absolute magnetization    =    27.41 Bohr mag/cell

     iteration #  8     ecut=    30.00 Ry     beta= 0.40
     CG style diagonalization
     ethr =  1.64E-08,  avg # of iterations =  3.0
 --- enter write_ns ---
 LDA+U parameters:
U( 3)     =  0.50000000
alpha( 3) = -0.20000000
U( 4)     =  0.50000000
alpha( 4) = -0.20000000
atom    1   Tr[ns(na)] (up, down, total) =   1.14891  4.89896  6.04786
   spin  1
    eigenvalues: 
  0.170  0.170  0.173  0.318  0.318
    eigenvectors:
  0.000  0.000  1.000  0.000  0.000
  0.079  0.312  0.000  0.026  0.582
  0.312  0.079  0.000  0.582  0.026
  0.168  0.441  0.000  0.205  0.186
  0.441  0.168  0.000  0.186  0.205
    occupations:
  0.173 -0.000 -0.000 -0.000 -0.000
 -0.000  0.260 -0.000  0.038  0.061
 -0.000 -0.000  0.260  0.061 -0.038
 -0.000  0.038  0.061  0.228  0.000
 -0.000  0.061 -0.038  0.000  0.228
   spin  2
    eigenvalues: 
  0.978  0.978  0.981  0.982  0.982
    eigenvectors:
  0.000  0.000  1.000  0.000  0.000
  0.025  0.448  0.000  0.067  0.460
  0.448  0.025  0.000  0.460  0.067
  0.209  0.319  0.000  0.127  0.345
  0.319  0.209  0.000  0.345  0.127
    occupations:
  0.981 -0.000 -0.000 -0.000 -0.000
 -0.000  0.980 -0.000 -0.001 -0.002
 -0.000 -0.000  0.980 -0.002  0.001
 -0.000 -0.001 -0.002  0.979  0.000
 -0.000 -0.002  0.001  0.000  0.979
atomic mag. moment =  -3.75005
atom    2   Tr[ns(na)] (up, down, total) =   1.23340  4.86031  6.09370
   spin  1
    eigenvalues: 
  0.171  0.186  0.186  0.345  0.345
    eigenvectors:
  1.000  0.000  0.000  0.000  0.000
  0.000  0.212  0.062  0.261  0.465
  0.000  0.062  0.212  0.465  0.261
  0.000  0.101  0.625  0.001  0.273
  0.000  0.625  0.101  0.273  0.001
    occupations:
  0.171 -0.000 -0.000 -0.000 -0.000
 -0.000  0.302 -0.000 -0.055  0.045
 -0.000 -0.000  0.302  0.045  0.055
 -0.000 -0.055  0.045  0.230  0.000
 -0.000  0.045  0.055  0.000  0.230
   spin  2
    eigenvalues: 
  0.960  0.960  0.979  0.980  0.980
    eigenvectors:
  0.000  0.000  1.000  0.000  0.000
  0.425  0.245  0.000  0.278  0.052
  0.245  0.425  0.000  0.052  0.278
  0.000  0.329  0.000  0.049  0.621
  0.329  0.000  0.000  0.621  0.049
    occupations:
  0.979 -0.000 -0.000 -0.000 -0.000
 -0.000  0.967 -0.000  0.006 -0.007
 -0.000 -0.000  0.967 -0.007 -0.006
 -0.000  0.006 -0.007  0.974  0.000
 -0.000 -0.007 -0.006  0.000  0.974
atomic mag. moment =  -3.62691
atom    3   Tr[ns(na)] (up, down, total) =   1.24975  4.86644  6.11619
   spin  1
    eigenvalues: 
  0.190  0.190  0.200  0.335  0.335
    eigenvectors:
  0.000  0.000  1.000  0.000  0.000
  0.372  0.209  0.000  0.321  0.099
  0.209  0.372  0.000  0.099  0.321
  0.025  0.394  0.000  0.082  0.498
  0.394  0.025  0.000  0.498  0.082
    occupations:
  0.200 -0.000 -0.000 -0.000 -0.000
 -0.000  0.251 -0.000 -0.056  0.045
 -0.000 -0.000  0.251  0.045  0.056
 -0.000 -0.056  0.045  0.274  0.000
 -0.000  0.045  0.056  0.000  0.274
   spin  2
    eigenvalues: 
  0.965  0.965  0.978  0.979  0.979
    eigenvectors:
  0.000  0.000  1.000  0.000  0.000
  0.437  0.114  0.000  0.325  0.124
  0.114  0.437  0.000  0.124  0.325
  0.038  0.411  0.000  0.025  0.526
  0.411  0.038  0.000  0.526  0.025
    occupations:
  0.978 -0.000 -0.000 -0.000 -0.000
 -0.000  0.971 -0.000  0.005 -0.005
 -0.000 -0.000  0.971 -0.005 -0.005
 -0.000  0.005 -0.005  0.973  0.000
 -0.000 -0.005 -0.005  0.000  0.973
atomic mag. moment =  -3.61669
atom    4   Tr[ns(na)] (up, down, total) =   4.86684  1.25231  6.11914
   spin  1
    eigenvalues: 
  0.965  0.965  0.979  0.979  0.979
    eigenvectors:
  0.000  0.000  1.000  0.000  0.000
  0.007  0.543  0.000  0.041  0.409
  0.543  0.007  0.000  0.409  0.041
  0.184  0.266  0.000  0.126  0.424
  0.266  0.184  0.000  0.424  0.126
    occupations:
  0.979 -0.000 -0.000 -0.000 -0.000
 -0.000  0.971 -0.000 -0.005 -0.005
 -0.000 -0.000  0.971 -0.005  0.005
 -0.000 -0.005 -0.005  0.973  0.000
 -0.000 -0.005  0.005  0.000  0.973
   spin  2
    eigenvalues: 
  0.190  0.190  0.201  0.335  0.335
    eigenvectors:
  0.000  0.000  1.000  0.000  0.000
  0.000  0.581  0.000  0.003  0.416
  0.581  0.000  0.000  0.416  0.003
  0.163  0.255  0.000  0.185  0.396
  0.255  0.163  0.000  0.396  0.185
    occupations:
  0.201 -0.000 -0.000 -0.000 -0.000
 -0.000  0.251 -0.000  0.056  0.045
 -0.000 -0.000  0.251  0.045 -0.056
 -0.000  0.056  0.045  0.275  0.000
 -0.000  0.045 -0.056  0.000  0.275
atomic mag. moment =   3.61453
atom    5   Tr[ns(na)] (up, down, total) =   4.89899  1.14815  6.04714
   spin  1
    eigenvalues: 
  0.978  0.978  0.981  0.982  0.982
    eigenvectors:
  0.000  0.000  1.000  0.000  0.000
  0.445  0.027  0.000  0.398  0.130
  0.027  0.445  0.000  0.130  0.398
  0.086  0.442  0.000  0.009  0.463
  0.442  0.086  0.000  0.463  0.009
    occupations:
  0.981 -0.000 -0.000 -0.000 -0.000
 -0.000  0.980 -0.000  0.001 -0.002
 -0.000 -0.000  0.980 -0.002 -0.001
 -0.000  0.001 -0.002  0.979  0.000
 -0.000 -0.002 -0.001  0.000  0.979
   spin  2
    eigenvalues: 
  0.170  0.170  0.173  0.317  0.317
    eigenvectors:
  0.000  0.000  1.000  0.000  0.000
  0.370  0.021  0.000  0.585  0.024
  0.021  0.370  0.000  0.024  0.585
  0.059  0.550  0.000  0.047  0.345
  0.550  0.059  0.000  0.345  0.047
    occupations:
  0.173 -0.000 -0.000 -0.000 -0.000
 -0.000  0.260 -0.000 -0.038  0.061
 -0.000 -0.000  0.260  0.061  0.038
 -0.000 -0.038  0.061  0.228  0.000
 -0.000  0.061  0.038  0.000  0.228
atomic mag. moment =   3.75085
atom    6   Tr[ns(na)] (up, down, total) =   4.86078  1.23585  6.09663
   spin  1
    eigenvalues: 
  0.961  0.961  0.979  0.980  0.980
    eigenvectors:
  0.000  0.000  1.000  0.000  0.000
  0.005  0.665  0.000  0.060  0.270
  0.665  0.005  0.000  0.270  0.060
  0.170  0.159  0.000  0.127  0.544
  0.159  0.170  0.000  0.544  0.127
    occupations:
  0.979 -0.000 -0.000 -0.000 -0.000
 -0.000  0.967 -0.000 -0.006 -0.007
 -0.000 -0.000  0.967 -0.007  0.006
 -0.000 -0.006 -0.007  0.974  0.000
 -0.000 -0.007  0.006  0.000  0.974
   spin  2
    eigenvalues: 
  0.171  0.186  0.186  0.346  0.346
    eigenvectors:
  1.000  0.000  0.000  0.000  0.000
  0.000  0.008  0.265  0.002  0.725
  0.000  0.265  0.008  0.725  0.002
  0.000  0.176  0.551  0.125  0.148
  0.000  0.551  0.176  0.148  0.125
    occupations:
  0.171 -0.000 -0.000 -0.000 -0.000
 -0.000  0.302 -0.000  0.055  0.045
 -0.000 -0.000  0.302  0.045 -0.055
 -0.000  0.055  0.045  0.230  0.000
 -0.000  0.045 -0.055  0.000  0.230
atomic mag. moment =   3.62492
N of occupied +U levels =   36.520665
 --- exit write_ns ---

     negative rho (up, down):  1.216E-01 1.216E-01
 --- in v_hubbard ---
Hubbard energy   -0.4254
 -------

     total cpu time spent up to now is     1772.1 secs

     total energy              =   -3195.22328335 Ry
     estimated scf accuracy    <       0.00002544 Ry

     total magnetization       =    -0.00 Bohr mag/cell
     absolute magnetization    =    27.41 Bohr mag/cell

     iteration #  9     ecut=    30.00 Ry     beta= 0.40
     CG style diagonalization
     ethr =  8.65E-09,  avg # of iterations =  3.0
 --- enter write_ns ---
 LDA+U parameters:
U( 3)     =  0.50000000
alpha( 3) = -0.20000000
U( 4)     =  0.50000000
alpha( 4) = -0.20000000
atom    1   Tr[ns(na)] (up, down, total) =   1.14578  4.89891  6.04469
   spin  1
    eigenvalues: 
  0.170  0.170  0.172  0.317  0.317
    eigenvectors:
  0.000  0.000  1.000  0.000  0.000
  0.079  0.313  0.000  0.026  0.582
  0.313  0.079  0.000  0.582  0.026
  0.167  0.441  0.000  0.205  0.187
  0.441  0.167  0.000  0.187  0.205
    occupations:
  0.172 -0.000 -0.000 -0.000 -0.000
 -0.000  0.259 -0.000  0.038  0.061
 -0.000 -0.000  0.259  0.061 -0.038
 -0.000  0.038  0.061  0.228  0.000
 -0.000  0.061 -0.038  0.000  0.228
   spin  2
    eigenvalues: 
  0.978  0.978  0.981  0.982  0.982
    eigenvectors:
  0.000  0.000  1.000  0.000  0.000
  0.025  0.446  0.000  0.068  0.461
  0.446  0.025  0.000  0.461  0.068
  0.209  0.320  0.000  0.128  0.344
  0.320  0.209  0.000  0.344  0.128
    occupations:
  0.981 -0.000 -0.000 -0.000 -0.000
 -0.000  0.980 -0.000 -0.001 -0.002
 -0.000 -0.000  0.980 -0.002  0.001
 -0.000 -0.001 -0.002  0.979  0.000
 -0.000 -0.002  0.001  0.000  0.979
atomic mag. moment =  -3.75313
atom    2   Tr[ns(na)] (up, down, total) =   1.23563  4.86086  6.09649
   spin  1
    eigenvalues: 
  0.172  0.186  0.186  0.346  0.346
    eigenvectors:
  1.000  0.000  0.000  0.000  0.000
  0.000  0.211  0.062  0.260  0.466
  0.000  0.062  0.211  0.466  0.260
  0.000  0.101  0.625  0.001  0.273
  0.000  0.625  0.101  0.273  0.001
    occupations:
  0.172 -0.000 -0.000 -0.000 -0.000
 -0.000  0.302 -0.000 -0.055  0.045
 -0.000 -0.000  0.302  0.045  0.055
 -0.000 -0.055  0.045  0.230  0.000
 -0.000  0.045  0.055  0.000  0.230
   spin  2
    eigenvalues: 
  0.961  0.961  0.979  0.980  0.980
    eigenvectors:
  0.000  0.000  1.000  0.000  0.000
  0.425  0.246  0.000  0.278  0.051
  0.246  0.425  0.000  0.051  0.278
  0.000  0.329  0.000  0.049  0.621
  0.329  0.000  0.000  0.621  0.049
    occupations:
  0.979 -0.000 -0.000 -0.000 -0.000
 -0.000  0.967 -0.000  0.006 -0.007
 -0.000 -0.000  0.967 -0.007 -0.006
 -0.000  0.006 -0.007  0.974  0.000
 -0.000 -0.007 -0.006  0.000  0.974
atomic mag. moment =  -3.62522
atom    3   Tr[ns(na)] (up, down, total) =   1.24990  4.86636  6.11626
   spin  1
    eigenvalues: 
  0.190  0.190  0.200  0.335  0.335
    eigenvectors:
  0.000  0.000  1.000  0.000  0.000
  0.371  0.209  0.000  0.321  0.099
  0.209  0.371  0.000  0.099  0.321
  0.025  0.395  0.000  0.082  0.498
  0.395  0.025  0.000  0.498  0.082
    occupations:
  0.200 -0.000 -0.000 -0.000 -0.000
 -0.000  0.251 -0.000 -0.056  0.045
 -0.000 -0.000  0.251  0.045  0.056
 -0.000 -0.056  0.045  0.274  0.000
 -0.000  0.045  0.056  0.000  0.274
   spin  2
    eigenvalues: 
  0.965  0.965  0.978  0.979  0.979
    eigenvectors:
  0.000  0.000  1.000  0.000  0.000
  0.438  0.113  0.000  0.326  0.123
  0.113  0.438  0.000  0.123  0.326
  0.038  0.411  0.000  0.025  0.526
  0.411  0.038  0.000  0.526  0.025
    occupations:
  0.978 -0.000 -0.000 -0.000 -0.000
 -0.000  0.971 -0.000  0.005 -0.005
 -0.000 -0.000  0.971 -0.005 -0.005
 -0.000  0.005 -0.005  0.973  0.000
[...]

     total cpu time spent up to now is     2212.3 secs

     End of self-consistent calculation

 ------ SPIN UP ------------


          k = 0.0000 0.0000 0.0000 (  6723 PWs)   bands (ev):

   -78.4381 -78.1961 -78.0863 -73.4511 -73.3947 -73.3074 -44.4312 -44.3927
   -44.3927 -44.1739 -44.1720 -44.1720 -44.1610 -44.0107 -44.0107 -39.5861
   -39.5460 -39.5460 -39.5227 -39.4932 -39.4932 -39.4693 -39.3990 -39.3990
   -10.7289 -10.7289 -10.7054 -10.7054 -10.6908 -10.6777 -10.6614 -10.6614
   -10.6460 -10.6460 -10.6391 -10.6391 -10.6184 -10.6184 -10.5918 -10.5825
   -10.5727 -10.5727 -10.5636 -10.5636 -10.5427 -10.5427 -10.5364 -10.5301
   -10.5301 -10.5259 -10.5052 -10.5052 -10.4943 -10.4943  -7.4054  -7.0200
    -6.8791  -6.0701  -5.9901  -5.6397  -5.6395  -5.5404  -5.5403  -5.4704
    -5.4703  -5.4282  -5.3461  -5.3460  -5.1284  -5.1284  -4.9741  -4.9740
     1.5664   1.6819   1.7145   2.4052   2.5302   3.3064   5.3035   5.3035
     5.4895   5.8141   5.8142   5.9402   5.9402   5.9905   6.1655   6.1655
     6.2134   6.4223   6.4223   6.4285   6.4915   6.5912   6.5912   6.7941
     6.7942   6.9361   7.0806   7.1722   7.1722   7.4364   7.4365   7.5877
     7.7618   8.0736   8.0736   8.2112   8.3943   8.3943   8.5263   8.5263
     8.7585   8.9493   9.0099   9.0100   9.1247   9.1248   9.2912   9.3179
     9.3180   9.3938   9.4503   9.4504   9.6339   9.6339   9.9911   9.9911
    10.0373  10.0374  10.0629  10.1037  10.1038  10.4810  10.4811  10.6284
    10.8304  10.9226  10.9226  10.9737  11.1351  11.1563  11.2614  11.7506
    11.7506  12.5346  12.5347  12.9410  12.9410  13.1234  13.1868  13.1994
    13.1994  13.2354  13.3754  13.3754  14.1711  14.1711  14.9195  14.9195
    15.5031  15.5856  15.5856  15.7187  15.7790  15.9087  17.1247  17.1248
    17.1501  17.1501  17.2500  17.2501  17.5331  17.6015  17.6656  17.6656
    17.7239  17.7240  18.1418  18.1418  19.5908  20.5945  21.1389  21.2739
    21.5329  21.5329  22.0684  22.2075  22.5678  22.5679  22.6487  22.6487
    22.7707  22.7707  23.9878  23.9878  24.0544  24.0544  24.1707  24.4080

     occupation numbers 
     1.0000   1.0000   1.0000   1.0000   1.0000   1.0000   1.0000   1.0000
     1.0000   1.0000   1.0000   1.0000   1.0000   1.0000   1.0000   1.0000
     1.0000   1.0000   1.0000   1.0000   1.0000   1.0000   1.0000   1.0000
     1.0000   1.0000   1.0000   1.0000   1.0000   1.0000   1.0000   1.0000
     1.0000   1.0000   1.0000   1.0000   1.0000   1.0000   1.0000   1.0000
     1.0000   1.0000   1.0000   1.0000   1.0000   1.0000   1.0000   1.0000
     1.0000   1.0000   1.0000   1.0000   1.0000   1.0000   1.0000   1.0000
     1.0000   1.0000   1.0000   1.0000   1.0000   1.0000   1.0000   1.0000
     1.0000   1.0000   1.0000   1.0000   1.0000   1.0000   1.0000   1.0000
     1.0000   1.0000   1.0000   1.0000   1.0000   1.0000   1.0000   1.0000
     1.0000   1.0000   1.0000   1.0000   1.0000   1.0000   1.0000   1.0000
     1.0000   1.0000   1.0000   1.0000   1.0000   1.0000   1.0000   1.0000
     1.0000   1.0000   1.0000   1.0000   1.0000   1.0000   1.0000   1.0000
     1.0000   1.0000   1.0000   1.0000   1.0000   1.0000   1.0000   1.0000
     1.0000   1.0000   1.0000   1.0000   1.0000   1.0000   1.0000   1.0000
     1.0000   1.0000   1.0000   1.0000   1.0000   1.0000   1.0000   1.0000
     1.0000   1.0000   1.0000   1.0000   1.0000   1.0000   1.0000   1.0000
     1.0000   1.0000   1.0000   1.0000   1.0000   1.0000   1.0000   1.0000
     1.0000   1.0071   1.0071  -0.0193  -0.0193  -0.0028  -0.0003  -0.0002
    -0.0002  -0.0000  -0.0000  -0.0000  -0.0000  -0.0000  -0.0000  -0.0000
    -0.0000  -0.0000  -0.0000  -0.0000  -0.0000  -0.0000  -0.0000  -0.0000
    -0.0000  -0.0000  -0.0000  -0.0000  -0.0000  -0.0000  -0.0000  -0.0000
    -0.0000  -0.0000  -0.0000  -0.0000  -0.0000  -0.0000  -0.0000  -0.0000
    -0.0000  -0.0000  -0.0000  -0.0000  -0.0000  -0.0000  -0.0000  -0.0000
    -0.0000  -0.0000  -0.0000  -0.0000  -0.0000  -0.0000  -0.0000  -0.0000

          k = 0.0000-0.5774 0.0000 (  6794 PWs)   bands (ev):

   -78.4384 -78.1964 -78.0866 -73.4513 -73.3949 -73.3076 -44.4323 -44.3952
   -44.3944 -44.1750 -44.1745 -44.1736 -44.1622 -44.0132 -44.0124 -39.5872
   -39.5482 -39.5474 -39.5237 -39.4954 -39.4946 -39.4704 -39.4013 -39.4005
   -10.7254 -10.7058 -10.6932 -10.6889 -10.6828 -10.6764 -10.6595 -10.6438
   -10.6389 -10.6340 -10.6268 -10.6248 -10.6217 -10.6178 -10.5897 -10.5812
   -10.5765 -10.5725 -10.5656 -10.5643 -10.5604 -10.5511 -10.5464 -10.5340
   -10.5326 -10.5228 -10.5204 -10.5107 -10.5080 -10.4971  -6.7030  -6.6698
    -6.5077  -6.3043  -6.2526  -5.9164  -5.8329  -5.7729  -5.6625  -5.5949
    -5.5390  -5.5156  -5.4397  -5.3814  -5.2366  -5.1806  -5.0748  -5.0004
     1.4936   1.7527   1.7957   2.0484   2.1252   2.3019   5.4715   5.7096
     5.7374   5.8255   6.0876   6.1271   6.2548   6.2930   6.3228   6.4926
     6.5175   6.5766   6.6608   6.7312   6.9634   7.0078   7.0531   7.1515
     7.2887   7.3640   7.4858   7.4945   7.6012   7.7176   7.7692   7.8829
     7.9549   8.0156   8.1424   8.2641   8.2792   8.3174   8.4475   8.5193
     8.6078   8.7020   8.8132   8.8761   8.9624   9.0144   9.0789   9.1494
     9.2239   9.2875   9.3691   9.4486   9.5955   9.7078   9.7626   9.8038
     9.8410   9.9056   9.9377  10.0560  10.1087  10.1643  10.2349  10.4719
    10.5830  10.7375  10.9562  11.0327  11.0828  11.2724  11.4698  11.7093
    11.7612  11.8205  12.4552  12.9092  13.0316  13.1252  13.1898  13.2268
    13.3068  13.3482  13.5140  13.6278  14.1961  14.2447  14.4641  14.7191
    14.7740  15.1758  15.3632  15.6731  15.7412  15.8631  15.9472  16.0034
    16.1074  16.1558  16.2392  16.9758  17.1294  17.2563  17.3254  17.3940
    17.4765  17.5379  17.6208  17.6973  21.3815  21.5768  21.8655  22.2694
    22.4484  22.5536  22.9256  22.9774  23.0578  23.1977  23.3141  23.3470
    23.4287  23.4626  23.9442  23.9690  24.1566  24.1848  24.3247  24.4421

     occupation numbers 
     1.0000   1.0000   1.0000   1.0000   1.0000   1.0000   1.0000   1.0000
     1.0000   1.0000   1.0000   1.0000   1.0000   1.0000   1.0000   1.0000
     1.0000   1.0000   1.0000   1.0000   1.0000   1.0000   1.0000   1.0000
     1.0000   1.0000   1.0000   1.0000   1.0000   1.0000   1.0000   1.0000
     1.0000   1.0000   1.0000   1.0000   1.0000   1.0000   1.0000   1.0000
     1.0000   1.0000   1.0000   1.0000   1.0000   1.0000   1.0000   1.0000
     1.0000   1.0000   1.0000   1.0000   1.0000   1.0000   1.0000   1.0000
     1.0000   1.0000   1.0000   1.0000   1.0000   1.0000   1.0000   1.0000
     1.0000   1.0000   1.0000   1.0000   1.0000   1.0000   1.0000   1.0000
     1.0000   1.0000   1.0000   1.0000   1.0000   1.0000   1.0000   1.0000
     1.0000   1.0000   1.0000   1.0000   1.0000   1.0000   1.0000   1.0000
     1.0000   1.0000   1.0000   1.0000   1.0000   1.0000   1.0000   1.0000
     1.0000   1.0000   1.0000   1.0000   1.0000   1.0000   1.0000   1.0000
     1.0000   1.0000   1.0000   1.0000   1.0000   1.0000   1.0000   1.0000
     1.0000   1.0000   1.0000   1.0000   1.0000   1.0000   1.0000   1.0000
     1.0000   1.0000   1.0000   1.0000   1.0000   1.0000   1.0000   1.0000
     1.0000   1.0000   1.0000   1.0000   1.0000   1.0000   1.0000   1.0000
     1.0000   1.0000   1.0000   1.0000   1.0000   1.0000   1.0000   1.0000
     1.0000   1.0000   1.0007   0.0339  -0.0223  -0.0026  -0.0003  -0.0001
    -0.0000  -0.0000  -0.0000  -0.0000  -0.0000  -0.0000  -0.0000  -0.0000
    -0.0000  -0.0000  -0.0000  -0.0000  -0.0000  -0.0000  -0.0000  -0.0000
    -0.0000  -0.0000  -0.0000  -0.0000  -0.0000  -0.0000  -0.0000  -0.0000
    -0.0000  -0.0000  -0.0000  -0.0000  -0.0000  -0.0000  -0.0000  -0.0000
    -0.0000  -0.0000  -0.0000  -0.0000  -0.0000  -0.0000  -0.0000  -0.0000
    -0.0000  -0.0000  -0.0000  -0.0000  -0.0000  -0.0000  -0.0000  -0.0000

 ------ SPIN DOWN ----------


          k = 0.0000 0.0000 0.0000 (  6723 PWs)   bands (ev):

   -78.4381 -78.1964 -78.0861 -73.4511 -73.3944 -73.3076 -44.4314 -44.3927
   -44.3926 -44.1736 -44.1722 -44.1722 -44.1613 -44.0105 -44.0105 -39.5860
   -39.5460 -39.5459 -39.5224 -39.4929 -39.4929 -39.4695 -39.3992 -39.3992
   -10.7288 -10.7288 -10.7056 -10.7056 -10.6905 -10.6781 -10.6612 -10.6612
   -10.6459 -10.6459 -10.6394 -10.6394 -10.6183 -10.6183 -10.5922 -10.5820
   -10.5727 -10.5727 -10.5636 -10.5636 -10.5429 -10.5429 -10.5368 -10.5299
   -10.5299 -10.5256 -10.5055 -10.5055 -10.4940 -10.4940  -7.4056  -7.0201
    -6.8790  -6.0700  -5.9902  -5.6395  -5.6393  -5.5407  -5.5406  -5.4705
    -5.4704  -5.4282  -5.3466  -5.3465  -5.1282  -5.1282  -4.9736  -4.9735
     1.5665   1.6818   1.7145   2.4052   2.5302   3.3065   5.3032   5.3033
     5.4893   5.8140   5.8140   5.9401   5.9402   5.9904   6.1655   6.1655
     6.2134   6.4223   6.4223   6.4284   6.4912   6.5907   6.5908   6.7945
     6.7946   6.9361   7.0808   7.1725   7.1725   7.4364   7.4364   7.5878
     7.7623   8.0737   8.0738   8.2111   8.3943   8.3944   8.5262   8.5262
     8.7585   8.9491   9.0099   9.0099   9.1248   9.1248   9.2912   9.3181
     9.3181   9.3937   9.4503   9.4504   9.6341   9.6341   9.9912   9.9913
    10.0375  10.0375  10.0631  10.1037  10.1037  10.4812  10.4813  10.6290
    10.8304  10.9228  10.9229  10.9737  11.1352  11.1561  11.2613  11.7509
    11.7509  12.5348  12.5348  12.9410  12.9410  13.1232  13.1868  13.1994
    13.1994  13.2356  13.3752  13.3753  14.1709  14.1709  14.9192  14.9192
    15.5031  15.5854  15.5854  15.7182  15.7793  15.9086  17.1248  17.1248
    17.1504  17.1505  17.2496  17.2497  17.5331  17.6015  17.6657  17.6657
    17.7239  17.7239  18.1417  18.1417  19.5914  20.5944  21.1393  21.2734
    21.5331  21.5331  22.0683  22.2073  22.5680  22.5680  22.6488  22.6488
    22.7705  22.7706  23.9877  23.9877  24.0544  24.0545  24.1705  24.4092

     occupation numbers 
     1.0000   1.0000   1.0000   1.0000   1.0000   1.0000   1.0000   1.0000
     1.0000   1.0000   1.0000   1.0000   1.0000   1.0000   1.0000   1.0000
     1.0000   1.0000   1.0000   1.0000   1.0000   1.0000   1.0000   1.0000
     1.0000   1.0000   1.0000   1.0000   1.0000   1.0000   1.0000   1.0000
     1.0000   1.0000   1.0000   1.0000   1.0000   1.0000   1.0000   1.0000
     1.0000   1.0000   1.0000   1.0000   1.0000   1.0000   1.0000   1.0000
     1.0000   1.0000   1.0000   1.0000   1.0000   1.0000   1.0000   1.0000
     1.0000   1.0000   1.0000   1.0000   1.0000   1.0000   1.0000   1.0000
     1.0000   1.0000   1.0000   1.0000   1.0000   1.0000   1.0000   1.0000
     1.0000   1.0000   1.0000   1.0000   1.0000   1.0000   1.0000   1.0000
     1.0000   1.0000   1.0000   1.0000   1.0000   1.0000   1.0000   1.0000
     1.0000   1.0000   1.0000   1.0000   1.0000   1.0000   1.0000   1.0000
     1.0000   1.0000   1.0000   1.0000   1.0000   1.0000   1.0000   1.0000
     1.0000   1.0000   1.0000   1.0000   1.0000   1.0000   1.0000   1.0000
     1.0000   1.0000   1.0000   1.0000   1.0000   1.0000   1.0000   1.0000
     1.0000   1.0000   1.0000   1.0000   1.0000   1.0000   1.0000   1.0000
     1.0000   1.0000   1.0000   1.0000   1.0000   1.0000   1.0000   1.0000
     1.0000   1.0000   1.0000   1.0000   1.0000   1.0000   1.0000   1.0000
     1.0000   1.0071   1.0072  -0.0194  -0.0194  -0.0028  -0.0003  -0.0002
    -0.0002  -0.0000  -0.0000  -0.0000  -0.0000  -0.0000  -0.0000  -0.0000
    -0.0000  -0.0000  -0.0000  -0.0000  -0.0000  -0.0000  -0.0000  -0.0000
    -0.0000  -0.0000  -0.0000  -0.0000  -0.0000  -0.0000  -0.0000  -0.0000
    -0.0000  -0.0000  -0.0000  -0.0000  -0.0000  -0.0000  -0.0000  -0.0000
    -0.0000  -0.0000  -0.0000  -0.0000  -0.0000  -0.0000  -0.0000  -0.0000
    -0.0000  -0.0000  -0.0000  -0.0000  -0.0000  -0.0000  -0.0000  -0.0000

          k = 0.0000-0.5774 0.0000 (  6794 PWs)   bands (ev):

   -78.4384 -78.1967 -78.0863 -73.4513 -73.3946 -73.3078 -44.4325 -44.3951
   -44.3943 -44.1748 -44.1746 -44.1739 -44.1625 -44.0130 -44.0121 -39.5870
   -39.5482 -39.5474 -39.5234 -39.4952 -39.4944 -39.4705 -39.4015 -39.4007
   -10.7252 -10.7060 -10.6929 -10.6885 -10.6831 -10.6767 -10.6595 -10.6435
   -10.6389 -10.6343 -10.6271 -10.6251 -10.6213 -10.6176 -10.5902 -10.5806
   -10.5767 -10.5725 -10.5657 -10.5640 -10.5608 -10.5508 -10.5465 -10.5339
   -10.5329 -10.5224 -10.5208 -10.5104 -10.5083 -10.4968  -6.7030  -6.6701
    -6.5078  -6.3044  -6.2524  -5.9164  -5.8328  -5.7730  -5.6627  -5.5948
    -5.5389  -5.5157  -5.4401  -5.3818  -5.2364  -5.1805  -5.0745  -4.9999
     1.4936   1.7526   1.7957   2.0485   2.1250   2.3021   5.4712   5.7092
     5.7372   5.8252   6.0874   6.1269   6.2547   6.2932   6.3229   6.4926
     6.5170   6.5768   6.6606   6.7311   6.9633   7.0079   7.0532   7.1515
     7.2890   7.3639   7.4858   7.4947   7.6012   7.7177   7.7694   7.8830
     7.9547   8.0156   8.1426   8.2638   8.2794   8.3176   8.4477   8.5195
     8.6079   8.7021   8.8130   8.8761   8.9625   9.0145   9.0790   9.1495
     9.2239   9.2875   9.3690   9.4486   9.5954   9.7077   9.7626   9.8037
     9.8411   9.9058   9.9378  10.0563  10.1089  10.1647  10.2351  10.4720
    10.5832  10.7377  10.9562  11.0326  11.0829  11.2727  11.4698  11.7095
    11.7614  11.8207  12.4553  12.9092  13.0315  13.1251  13.1899  13.2269
    13.3067  13.3482  13.5139  13.6276  14.1960  14.2446  14.4640  14.7189
    14.7738  15.1757  15.3631  15.6731  15.7415  15.8629  15.9470  16.0032
    16.1076  16.1556  16.2392  16.9758  17.1294  17.2564  17.3254  17.3941
    17.4766  17.5375  17.6207  17.6976  21.3824  21.5775  21.8659  22.2691
    22.4481  22.5530  22.9254  22.9774  23.0577  23.1982  23.3143  23.3468
    23.4285  23.4624  23.9443  23.9692  24.1568  24.1846  24.3247  24.4396

     occupation numbers 
     1.0000   1.0000   1.0000   1.0000   1.0000   1.0000   1.0000   1.0000
     1.0000   1.0000   1.0000   1.0000   1.0000   1.0000   1.0000   1.0000
     1.0000   1.0000   1.0000   1.0000   1.0000   1.0000   1.0000   1.0000
     1.0000   1.0000   1.0000   1.0000   1.0000   1.0000   1.0000   1.0000
     1.0000   1.0000   1.0000   1.0000   1.0000   1.0000   1.0000   1.0000
     1.0000   1.0000   1.0000   1.0000   1.0000   1.0000   1.0000   1.0000
     1.0000   1.0000   1.0000   1.0000   1.0000   1.0000   1.0000   1.0000
     1.0000   1.0000   1.0000   1.0000   1.0000   1.0000   1.0000   1.0000
     1.0000   1.0000   1.0000   1.0000   1.0000   1.0000   1.0000   1.0000
     1.0000   1.0000   1.0000   1.0000   1.0000   1.0000   1.0000   1.0000
     1.0000   1.0000   1.0000   1.0000   1.0000   1.0000   1.0000   1.0000
     1.0000   1.0000   1.0000   1.0000   1.0000   1.0000   1.0000   1.0000
     1.0000   1.0000   1.0000   1.0000   1.0000   1.0000   1.0000   1.0000
     1.0000   1.0000   1.0000   1.0000   1.0000   1.0000   1.0000   1.0000
     1.0000   1.0000   1.0000   1.0000   1.0000   1.0000   1.0000   1.0000
     1.0000   1.0000   1.0000   1.0000   1.0000   1.0000   1.0000   1.0000
     1.0000   1.0000   1.0000   1.0000   1.0000   1.0000   1.0000   1.0000
     1.0000   1.0000   1.0000   1.0000   1.0000   1.0000   1.0000   1.0000
     1.0000   1.0000   1.0007   0.0340  -0.0223  -0.0026  -0.0003  -0.0001
    -0.0000  -0.0000  -0.0000  -0.0000  -0.0000  -0.0000  -0.0000  -0.0000
    -0.0000  -0.0000  -0.0000  -0.0000  -0.0000  -0.0000  -0.0000  -0.0000
    -0.0000  -0.0000  -0.0000  -0.0000  -0.0000  -0.0000  -0.0000  -0.0000
    -0.0000  -0.0000  -0.0000  -0.0000  -0.0000  -0.0000  -0.0000  -0.0000
    -0.0000  -0.0000  -0.0000  -0.0000  -0.0000  -0.0000  -0.0000  -0.0000
    -0.0000  -0.0000  -0.0000  -0.0000  -0.0000  -0.0000  -0.0000  -0.0000

     the Fermi energy is    12.8115 ev

!    total energy              =   -3195.22328648 Ry
     estimated scf accuracy    <       0.00000003 Ry
     smearing contrib. (-TS)   =       0.00151337 Ry
     internal energy E=F+TS    =   -3195.22479985 Ry

     The total energy is F=E-TS. E is the sum of the following terms:
     one-electron contribution =   -1266.86392449 Ry
     hartree contribution      =     826.13800938 Ry
     xc contribution           =    -695.59221604 Ry
     ewald contribution        =   -2058.48132916 Ry
     Hubbard energy            =      -0.42533953 Ry

     total magnetization       =    -0.00 Bohr mag/cell
     absolute magnetization    =    27.40 Bohr mag/cell

     convergence has been achieved in  13 iterations

     Writing output data file /home/aldair1809/Documentos/QE/4BFO/hubbard_pbe_mp/lr_-0.2/bifeo3-Uhubbard.save/

     init_run     :     34.18s CPU     34.93s WALL (       1 calls)
     electrons    :   2131.31s CPU   2176.52s WALL (       1 calls)

     Called by init_run:
     wfcinit      :     32.12s CPU     32.54s WALL (       1 calls)
     wfcinit:atom :      0.03s CPU      0.03s WALL (       4 calls)
     wfcinit:wfcr :     22.66s CPU     22.98s WALL (       4 calls)
     potinit      :      0.14s CPU      0.16s WALL (       1 calls)
     hinit0       :      0.98s CPU      1.00s WALL (       1 calls)

     Called by electrons:
     c_bands      :   2028.35s CPU   2067.10s WALL (      13 calls)
     sum_band     :     91.82s CPU     95.75s WALL (      13 calls)
     v_of_rho     :      1.84s CPU      1.94s WALL (      14 calls)
     v_h          :      0.05s CPU      0.06s WALL (      14 calls)
     v_xc         :      1.79s CPU      1.88s WALL (      14 calls)
     newd         :      9.69s CPU     12.26s WALL (      14 calls)
     mix_rho      :      0.33s CPU      0.35s WALL (      13 calls)

     Called by c_bands:
     init_us_2    :      1.27s CPU      1.30s WALL (     112 calls)
     ccgdiagg     :   1692.87s CPU   1726.06s WALL (      64 calls)
     wfcrot       :    357.03s CPU    362.88s WALL (      64 calls)

     Called by sum_band:
     sum_band:wei :      0.04s CPU      0.04s WALL (      13 calls)
     sum_band:loo :     73.03s CPU     74.51s WALL (      13 calls)
     sum_band:buf :      0.21s CPU      0.21s WALL (      52 calls)
     sum_band:ini :      0.59s CPU      0.59s WALL (      52 calls)
     sum_band:cal :     53.51s CPU     53.94s WALL (      52 calls)
     sum_band:bec :      0.35s CPU      0.36s WALL (      52 calls)
     addusdens    :     14.50s CPU     16.91s WALL (      13 calls)
     addusd:skk   :      0.06s CPU      0.06s WALL (      52 calls)
     addusd:dgemm :      7.59s CPU      9.59s WALL (     104 calls)
     addusd:qvan2 :      6.68s CPU      6.71s WALL (     104 calls)

     Called by *cgdiagg:
     h_psi        :    920.57s CPU    944.72s WALL (   47512 calls)
     s_psi        :    604.96s CPU    611.64s WALL (   94964 calls)

     Called by h_psi:
     h_psi:calbec :    318.22s CPU    325.22s WALL (   47512 calls)
     vloc_psi     :    206.92s CPU    219.52s WALL (   47512 calls)
     add_vuspsi   :    335.61s CPU    338.94s WALL (   47512 calls)
     vhpsi        :     57.70s CPU     59.14s WALL (   47512 calls)
     hs_1psi      :    991.18s CPU   1013.87s WALL (   47448 calls)
     s_1psi       :    515.07s CPU    522.38s WALL (   47448 calls)

     General routines
     calbec       :    663.84s CPU    677.09s WALL (  142580 calls)
     fft          :      0.78s CPU      0.87s WALL (     292 calls)
     ffts         :      0.08s CPU      0.08s WALL (      26 calls)
     fftw         :    191.77s CPU    204.37s WALL (  130928 calls)
     davcio       :      0.00s CPU      0.00s WALL (       4 calls)

     Parallel routines
     fft_scatt_xy :     27.10s CPU     29.23s WALL (  131246 calls)
     fft_scatt_yz :     33.20s CPU     37.13s WALL (  131246 calls)

     Hubbard U routines
     new_ns       :      3.77s CPU      3.79s WALL (      13 calls)
     new_ns       :      3.77s CPU      3.79s WALL (      13 calls)
     vhpsi        :     57.70s CPU     59.14s WALL (   47512 calls)

     PWSCF        :  36m 6.45s CPU  36m52.78s WALL


   This run was terminated on:  18:43: 7  26Oct2024            

=------------------------------------------------------------------------------=
   JOB DONE.
=------------------------------------------------------------------------------=
