
     Program PWSCF v.6.7MaX starts on 26Oct2024 at 21:48:16 

     This program is part of the open-source Quantum ESPRESSO suite
     for quantum simulation of materials; please cite
         "P. Giannozzi et al., J. Phys.:Condens. Matter 21 395502 (2009);
         "P. Giannozzi et al., J. Phys.:Condens. Matter 29 465901 (2017);
          URL http://www.quantum-espresso.org", 
     in publications or presentations arising from this work. More details at
     http://www.quantum-espresso.org/quote

     Parallel version (MPI), running on     4 processors

     MPI processes distributed on     1 nodes
     R & G space division:  proc/nbgrp/npool/nimage =       4
     Waiting for input...
     Reading input from standard input

     Current dimensions of program PWSCF are:
     Max number of different atomic species (ntypx) = 10
     Max number of k-points (npk) =  40000
     Max angular momentum in pseudopotentials (lmaxx) =  3

     Subspace diagonalization in iterative solution of the eigenvalue problem:
     one sub-group per band group will be used
     scalapack distributed-memory algorithm (size of sub-group:  2*  2 procs)


     Parallelization info
     --------------------
     sticks:   dense  smooth     PW     G-vecs:    dense   smooth      PW
     Min         261     261     74                17069    17069    2544
     Max         262     262     76                17072    17072    2546
     Sum        1045    1045    301                68281    68281   10179



     bravais-lattice index     =            4
     lattice parameter (alat)  =      10.4531  a.u.
     unit-cell volume          =    2440.6662 (a.u.)^3
     number of atoms/cell      =           30
     number of atomic types    =            4
     number of electrons       =       294.00
     number of Kohn-Sham states=          200
     kinetic-energy cutoff     =      35.0000  Ry
     charge density cutoff     =     140.0000  Ry
     scf convergence threshold =      1.0E-07
     mixing beta               =       0.4000
     number of iterations used =            8  plain     mixing
     Exchange-correlation=  SLA  PW   PBX  PBC
                           (   1   4   3   4   0   0   0)

     celldm(1)=  10.453102  celldm(2)=   0.000000  celldm(3)=   2.467415
     celldm(4)=   0.000000  celldm(5)=   0.000000  celldm(6)=   0.000000

     crystal axes: (cart. coord. in units of alat)
               a(1) = (   1.000000   0.000000   0.000000 )  
               a(2) = (  -0.500000   0.866025   0.000000 )  
               a(3) = (   0.000000   0.000000   2.467415 )  

     reciprocal axes: (cart. coord. in units 2 pi/alat)
               b(1) = (  1.000000  0.577350 -0.000000 )  
               b(2) = (  0.000000  1.154701  0.000000 )  
               b(3) = (  0.000000 -0.000000  0.405282 )  


     PseudoPot. # 1 for O  read from file:
     /home/aldair1809/Programas/QE/q-e-qe-7.3/pseudo/o_pbe_v1.2.uspp.F.UPF
     MD5 check sum: 734c27235a0248c51dbae37a1fbe46ec
     Pseudo is Ultrasoft + core correction, Zval =  6.0
     Generated by new atomic code, or converted to UPF format
     Using radial grid of  737 points,  5 beta functions with: 
                l(1) =   0
                l(2) =   0
                l(3) =   1
                l(4) =   1
                l(5) =   2
     Q(r) pseudized with  8 coefficients,  rinner =    0.900   0.900   0.900
                                                       0.900   0.900

     PseudoPot. # 2 for Bi read from file:
     /home/aldair1809/Programas/QE/q-e-qe-7.3/pseudo/bi_pbe_v1.uspp.F.UPF
     MD5 check sum: cceb9f28ec65b6d7ff33140f5b0b1758
     Pseudo is Ultrasoft + core correction, Zval = 15.0
     Generated by new atomic code, or converted to UPF format
     Using radial grid of  899 points,  6 beta functions with: 
                l(1) =   0
                l(2) =   0
                l(3) =   1
                l(4) =   1
                l(5) =   2
                l(6) =   2
     Q(r) pseudized with  6 coefficients,  rinner =    1.000   1.000   1.000
                                                       1.000   1.000

     PseudoPot. # 3 for Fe read from file:
     /home/aldair1809/Programas/QE/q-e-qe-7.3/pseudo/fe_pbe_v1.5.uspp.F.UPF
     MD5 check sum: a130daea23fe5165f5d574ae7f82ed95
     Pseudo is Ultrasoft + core correction, Zval = 16.0
     Generated by new atomic code, or converted to UPF format
     Using radial grid of  861 points,  6 beta functions with: 
                l(1) =   0
                l(2) =   0
                l(3) =   1
                l(4) =   1
                l(5) =   2
                l(6) =   2
     Q(r) pseudized with  8 coefficients,  rinner =    1.000   1.000   1.000
                                                       1.000   1.000

     PseudoPot. # 4 for Fe read from file:
     /home/aldair1809/Programas/QE/q-e-qe-7.3/pseudo/fe_pbe_v1.5.uspp.F.UPF
     MD5 check sum: a130daea23fe5165f5d574ae7f82ed95
     Pseudo is Ultrasoft + core correction, Zval = 16.0
     Generated by new atomic code, or converted to UPF format
     Using radial grid of  861 points,  6 beta functions with: 
                l(1) =   0
                l(2) =   0
                l(3) =   1
                l(4) =   1
                l(5) =   2
                l(6) =   2
     Q(r) pseudized with  8 coefficients,  rinner =    1.000   1.000   1.000
                                                       1.000   1.000

     atomic species   valence    mass     pseudopotential
        O              6.00    15.99940     O ( 1.00)
        Bi            15.00   208.98040     Bi( 1.00)
        Fe1           16.00    55.84500     Fe( 1.00)
        Fe2           16.00    55.84500     Fe( 1.00)

     Starting magnetic structure 
     atomic species   magnetization
        O            0.000
        Bi           0.000
        Fe1         -0.800
        Fe2          0.800


     Simplified LDA+U calculation (l_max = 2) with parameters (eV):
     atomic species    L          U    alpha       J0     beta
        Fe1            2     0.0000  -0.0200   0.0000   0.0000
        Fe2            2     0.0000  -0.0200   0.0000   0.0000



      3 Sym. Ops. (no inversion) found


                                    s                        frac. trans.

      isym =  1     identity                                     

 cryst.   s( 1) = (     1          0          0      )
                  (     0          1          0      )
                  (     0          0          1      )

 cart.    s( 1) = (  1.0000000  0.0000000  0.0000000 )
                  (  0.0000000  1.0000000  0.0000000 )
                  (  0.0000000  0.0000000  1.0000000 )


      isym =  2     120 deg rotation - cryst. axis [0,0,1]       

 cryst.   s( 2) = (     0          1          0      )
                  (    -1         -1          0      )
                  (     0          0          1      )

 cart.    s( 2) = ( -0.5000000 -0.8660254  0.0000000 )
                  (  0.8660254 -0.5000000  0.0000000 )
                  (  0.0000000  0.0000000  1.0000000 )


      isym =  3     120 deg rotation - cryst. axis [0,0,-1]      

 cryst.   s( 3) = (    -1         -1          0      )
                  (     1          0          0      )
                  (     0          0          1      )

 cart.    s( 3) = ( -0.5000000  0.8660254  0.0000000 )
                  ( -0.8660254 -0.5000000  0.0000000 )
                  (  0.0000000  0.0000000  1.0000000 )


     point group C_3 (3)    
     there are  3 classes
     the character table:

       E     C3    C3^2 
A      1.00  1.00  1.00
E      1.00 -0.50 -0.50
E*     1.00 -0.50 -0.50
     imaginary part
A      0.00  0.00  0.00
E      0.00  0.87 -0.87
E*     0.00 -0.87  0.87

     the symmetry operations in each class and the name of the first element:

     E        1
          identity                                               
     C3       2
          120 deg rotation - cryst. axis [0,0,1]                 
     C3^2     3
          120 deg rotation - cryst. axis [0,0,-1]                

   Cartesian axes

     site n.     atom                  positions (alat units)
         1           Fe1 tau(   1) = (   0.0000000   0.0000000   1.9173194  )
         2           Fe1 tau(   2) = (  -0.0000005   0.5773506   2.3408318  )
         3           Fe1 tau(   3) = (   0.5000005   0.2886748   1.4987656  )
         4           Fe2 tau(   4) = (   0.5000005   0.2886748   0.2650306  )
         5           Fe2 tau(   5) = (   0.0000000   0.0000000   0.6836385  )
         6           Fe2 tau(   6) = (  -0.0000005   0.5773506   1.1071829  )
         7           Bi  tau(   7) = (   0.5000005   0.2886748   2.0704508  )
         8           Bi  tau(   8) = (  -0.0000005   0.5773506   1.6683657  )
         9           Bi  tau(   9) = (  -0.0000005   0.5773506   0.4345959  )
        10           Bi  tau(  10) = (   0.0000000   0.0000000   0.0112133  )
        11           Bi  tau(  11) = (   0.0000000   0.0000000   1.2449306  )
        12           Bi  tau(  12) = (   0.5000005   0.2886748   0.8366940  )
        13           O   tau(  13) = (  -0.3015234   0.6617768   2.1713309  )
        14           O   tau(  14) = (   0.0776467   0.2740092   2.1713309  )
        15           O   tau(  15) = (   0.2238783   0.7962639   2.1713309  )
        16           O   tau(  16) = (   0.4195843   0.5622547   1.7587968  )
        17           O   tau(  17) = (   0.3032805   0.0822442   1.7587968  )
        18           O   tau(  18) = (   0.7771337   0.2215274   1.7587968  )
        19           O   tau(  19) = (   0.6967279   0.0822438   0.5250654  )
        20           O   tau(  20) = (   0.5804103   0.5622631   0.5250654  )
        21           O   tau(  21) = (   0.2228602   0.2215194   0.5250654  )
        22           O   tau(  22) = (  -0.0757596   0.8510068   0.1130324  )
        23           O   tau(  23) = (  -0.1991137   0.3749123   0.1130324  )
        24           O   tau(  24) = (   0.2748733   0.5061317   0.1130324  )
        25           O   tau(  25) = (   0.1991050   0.3749017   1.3467955  )
        26           O   tau(  26) = (   0.0757731   0.8510045   1.3467955  )
        27           O   tau(  27) = (  -0.2748781   0.5061446   1.3467955  )
        28           O   tau(  28) = (  -0.0776631   0.2740052   0.9376559  )
        29           O   tau(  29) = (   0.3015366   0.6617637   0.9376559  )
        30           O   tau(  30) = (  -0.2238720   0.7962811   0.9376559  )

   Crystallographic axes

     site n.     atom                  positions (cryst. coord.)
         1           Fe1 tau(   1) = (  0.0000000  0.0000000  0.7770559  )
         2           Fe1 tau(   2) = (  0.3333330  0.6666670  0.9486980  )
         3           Fe1 tau(   3) = (  0.6666670  0.3333330  0.6074234  )
         4           Fe2 tau(   4) = (  0.6666670  0.3333330  0.1074122  )
         5           Fe2 tau(   5) = (  0.0000000  0.0000000  0.2770667  )
         6           Fe2 tau(   6) = (  0.3333330  0.6666670  0.4487218  )
         7           Bi  tau(   7) = (  0.6666670  0.3333330  0.8391174  )
         8           Bi  tau(   8) = (  0.3333330  0.6666670  0.6761593  )
         9           Bi  tau(   9) = (  0.3333330  0.6666670  0.1761341  )
        10           Bi  tau(  10) = (  0.0000000  0.0000000  0.0045446  )
        11           Bi  tau(  11) = (  0.0000000  0.0000000  0.5045485  )
        12           Bi  tau(  12) = (  0.6666670  0.3333330  0.3390974  )
        13           O   tau(  13) = (  0.0805536  0.7641541  0.8800023  )
        14           O   tau(  14) = (  0.2358459  0.3163985  0.8800023  )
        15           O   tau(  15) = (  0.6836015  0.9194464  0.8800023  )
        16           O   tau(  16) = (  0.7442022  0.6492358  0.7128095  )
        17           O   tau(  17) = (  0.3507642  0.0949674  0.7128095  )
        18           O   tau(  18) = (  0.9050326  0.2557978  0.7128095  )
        19           O   tau(  19) = (  0.7442114  0.0949669  0.2127998  )
        20           O   tau(  20) = (  0.9050331  0.6492455  0.2127998  )
        21           O   tau(  21) = (  0.3507545  0.2557886  0.2127998  )
        22           O   tau(  22) = (  0.4155694  0.9826580  0.0458101  )
        23           O   tau(  23) = (  0.0173420  0.4329115  0.0458101  )
        24           O   tau(  24) = (  0.5670885  0.5844306  0.0458101  )
        25           O   tau(  25) = (  0.4155546  0.4328992  0.5458326  )
        26           O   tau(  26) = (  0.5671008  0.9826554  0.5458326  )
        27           O   tau(  27) = (  0.0173446  0.5844454  0.5458326  )
        28           O   tau(  28) = (  0.0805338  0.3163939  0.3800155  )
        29           O   tau(  29) = (  0.6836061  0.7641389  0.3800155  )
        30           O   tau(  30) = (  0.2358611  0.9194662  0.3800155  )

     number of k points=     2  Methfessel-Paxton smearing, width (Ry)=  0.0100
                       cart. coord. in units 2pi/alat
        k(    1) = (   0.0000000   0.0000000   0.0000000), wk =   0.2500000
        k(    2) = (   0.0000000  -0.5773503   0.0000000), wk =   0.7500000

                       cryst. coord.
        k(    1) = (   0.0000000   0.0000000   0.0000000), wk =   0.2500000
        k(    2) = (   0.0000000  -0.5000000   0.0000000), wk =   0.7500000

     Dense  grid:    68281 G-vectors     FFT dimensions: (  40,  40, 100)

     Dynamical RAM for                 wfc:       6.51 MB

     Dynamical RAM for     wfc (w. buffer):      32.55 MB

     Dynamical RAM for             U proj.:       0.98 MB

     Dynamical RAM for  U proj. (w. buff.):       4.88 MB

     Dynamical RAM for           str. fact:       1.04 MB

     Dynamical RAM for           local pot:       0.00 MB

     Dynamical RAM for          nlocal pot:      14.65 MB

     Dynamical RAM for                qrad:       3.80 MB

     Dynamical RAM for          rho,v,vnew:       3.39 MB

     Dynamical RAM for               rhoin:       1.13 MB

     Dynamical RAM for            rho*nmix:       8.34 MB

     Dynamical RAM for           G-vectors:       1.11 MB

     Dynamical RAM for          h,s,v(r/c):       0.46 MB

     Dynamical RAM for          <psi|beta>:       1.37 MB

     Dynamical RAM for      wfcinit/wfcrot:      13.94 MB

     Dynamical RAM for           addusdens:      53.40 MB

     Estimated static dynamical RAM per process >      74.02 MB

     Estimated max dynamical RAM per process >     127.42 MB

     Estimated total dynamical RAM >     509.70 MB

     Atomic positions and unit cell read from directory:
     /home/aldair1809/Documentos/QE/4BFO/hubbard_pbe_mp/lr_-0.02/bifeo3-Uhubbard.save/


     Check: negative core charge=   -0.000081
     Generating pointlists ...
     new r_m :   0.1435 (alat units)  1.5003 (a.u.) for type    1
     new r_m :   0.1728 (alat units)  1.8065 (a.u.) for type    2
     new r_m :   0.1435 (alat units)  1.5003 (a.u.) for type    3
     new r_m :   0.1435 (alat units)  1.5003 (a.u.) for type    4

     The initial density is read from file :
     /home/aldair1809/Documentos/QE/4BFO/hubbard_pbe_mp/lr_-0.02/bifeo3-Uhubbard.save/charge-density


     negative rho (up, down):  1.235E-01 1.235E-01
 --- in v_hubbard ---
Hubbard energy   -0.0543
 -------
     Number of +U iterations with fixed ns =  0
     Starting occupations:
 --- enter write_ns ---
 LDA+U parameters:
alpha( 3) = -0.02000000
alpha( 4) = -0.02000000
atom    1   Tr[ns(na)] (up, down, total) =   1.14843  4.96207  6.11051
   spin  1
    eigenvalues: 
  0.167  0.174  0.174  0.317  0.317
    eigenvectors:
  1.000  0.000  0.000  0.000  0.000
  0.000  0.081  0.306  0.026  0.587
  0.000  0.306  0.081  0.587  0.026
  0.000  0.165  0.448  0.205  0.182
  0.000  0.448  0.165  0.182  0.205
    occupations:
  0.167 -0.000 -0.000 -0.000 -0.000
 -0.000  0.261 -0.000  0.036  0.059
 -0.000 -0.000  0.261  0.059 -0.036
 -0.000  0.036  0.059  0.229  0.000
 -0.000  0.059 -0.036  0.000  0.229
   spin  2
    eigenvalues: 
  0.990  0.990  0.993  0.994  0.994
    eigenvectors:
  0.000  0.000  1.000  0.000  0.000
  0.040  0.302  0.000  0.045  0.613
  0.302  0.040  0.000  0.613  0.045
  0.223  0.434  0.000  0.145  0.198
  0.434  0.223  0.000  0.198  0.145
    occupations:
  0.993 -0.000 -0.000 -0.000 -0.000
 -0.000  0.993 -0.000 -0.001 -0.002
 -0.000 -0.000  0.993 -0.002  0.001
 -0.000 -0.001 -0.002  0.992  0.000
 -0.000 -0.002  0.001  0.000  0.992
atomic mag. moment =  -3.81364
atom    2   Tr[ns(na)] (up, down, total) =   1.25263  4.91386  6.16649
   spin  1
    eigenvalues: 
  0.179  0.193  0.193  0.344  0.344
    eigenvectors:
  1.000  0.000  0.000  0.000  0.000
  0.000  0.191  0.073  0.239  0.497
  0.000  0.073  0.191  0.497  0.239
  0.000  0.103  0.632  0.000  0.264
  0.000  0.632  0.103  0.264  0.000
    occupations:
  0.179 -0.000 -0.000 -0.000 -0.000
 -0.000  0.304 -0.000 -0.054  0.039
 -0.000 -0.000  0.304  0.039  0.054
 -0.000 -0.054  0.039  0.233  0.000
 -0.000  0.039  0.054  0.000  0.233
   spin  2
    eigenvalues: 
  0.969  0.969  0.991  0.992  0.992
    eigenvectors:
  0.000  0.000  1.000  0.000  0.000
  0.478  0.173  0.000  0.299  0.049
  0.173  0.478  0.000  0.049  0.299
  0.004  0.344  0.000  0.044  0.608
  0.344  0.004  0.000  0.608  0.044
    occupations:
  0.991 -0.000 -0.000 -0.000 -0.000
 -0.000  0.977 -0.000  0.007 -0.009
 -0.000 -0.000  0.977 -0.009 -0.007
 -0.000  0.007 -0.009  0.984  0.000
 -0.000 -0.009 -0.007  0.000  0.984
atomic mag. moment =  -3.66122
atom    3   Tr[ns(na)] (up, down, total) =   1.26880  4.91890  6.18770
   spin  1
    eigenvalues: 
  0.198  0.198  0.208  0.332  0.332
    eigenvectors:
  0.000  0.000  1.000  0.000  0.000
  0.362  0.241  0.000  0.294  0.104
  0.241  0.362  0.000  0.104  0.294
  0.024  0.374  0.000  0.088  0.514
  0.374  0.024  0.000  0.514  0.088
    occupations:
  0.208 -0.000 -0.000 -0.000 -0.000
 -0.000  0.251 -0.000 -0.053  0.039
 -0.000 -0.000  0.251  0.039  0.053
 -0.000 -0.053  0.039  0.279  0.000
 -0.000  0.039  0.053  0.000  0.279
   spin  2
    eigenvalues: 
  0.973  0.973  0.990  0.991  0.991
    eigenvectors:
  0.000  0.000  1.000  0.000  0.000
  0.456  0.089  0.000  0.340  0.114
  0.089  0.456  0.000  0.114  0.340
  0.044  0.411  0.000  0.023  0.523
  0.411  0.044  0.000  0.523  0.023
    occupations:
  0.990 -0.000 -0.000 -0.000 -0.000
 -0.000  0.981 -0.000  0.006 -0.007
 -0.000 -0.000  0.981 -0.007 -0.006
 -0.000  0.006 -0.007  0.983  0.000
 -0.000 -0.007 -0.006  0.000  0.983
atomic mag. moment =  -3.65010
atom    4   Tr[ns(na)] (up, down, total) =   4.91906  1.27035  6.18941
   spin  1
    eigenvalues: 
  0.973  0.973  0.990  0.991  0.991
    eigenvectors:
  0.000  0.000  1.000  0.000  0.000
  0.010  0.535  0.000  0.050  0.404
  0.535  0.010  0.000  0.404  0.050
  0.190  0.265  0.000  0.126  0.419
  0.265  0.190  0.000  0.419  0.126
    occupations:
  0.990 -0.000 -0.000 -0.000 -0.000
 -0.000  0.981 -0.000 -0.006 -0.007
 -0.000 -0.000  0.981 -0.007  0.006
 -0.000 -0.006 -0.007  0.983  0.000
 -0.000 -0.007  0.006  0.000  0.983
   spin  2
    eigenvalues: 
  0.199  0.199  0.209  0.332  0.332
    eigenvectors:
  0.000  0.000  1.000  0.000  0.000
  0.001  0.602  0.000  0.001  0.396
  0.602  0.001  0.000  0.396  0.001
  0.157  0.240  0.000  0.182  0.421
  0.240  0.157  0.000  0.421  0.182
    occupations:
  0.209 -0.000 -0.000 -0.000 -0.000
 -0.000  0.252 -0.000  0.053  0.039
 -0.000 -0.000  0.252  0.039 -0.053
 -0.000  0.053  0.039  0.279  0.000
 -0.000  0.039 -0.053  0.000  0.279
atomic mag. moment =   3.64872
atom    5   Tr[ns(na)] (up, down, total) =   4.96210  1.14660  6.10870
   spin  1
    eigenvalues: 
  0.990  0.990  0.993  0.994  0.994
    eigenvectors:
  0.000  0.000  1.000  0.000  0.000
  0.336  0.005  0.000  0.440  0.219
  0.005  0.336  0.000  0.219  0.440
  0.141  0.518  0.000  0.000  0.341
  0.518  0.141  0.000  0.341  0.000
    occupations:
  0.993 -0.000 -0.000 -0.000 -0.000
 -0.000  0.993 -0.000  0.001 -0.002
 -0.000 -0.000  0.993 -0.002 -0.001
 -0.000  0.001 -0.002  0.992  0.000
 -0.000 -0.002 -0.001  0.000  0.992
   spin  2
    eigenvalues: 
  0.166  0.173  0.173  0.317  0.317
    eigenvectors:
  1.000  0.000  0.000  0.000  0.000
  0.000  0.366  0.020  0.587  0.026
  0.000  0.020  0.366  0.026  0.587
  0.000  0.060  0.553  0.043  0.343
  0.000  0.553  0.060  0.343  0.043
    occupations:
  0.166 -0.000 -0.000 -0.000 -0.000
 -0.000  0.261 -0.000 -0.036  0.060
 -0.000 -0.000  0.261  0.060  0.036
 -0.000 -0.036  0.060  0.229  0.000
 -0.000  0.060  0.036  0.000  0.229
atomic mag. moment =   3.81550
atom    6   Tr[ns(na)] (up, down, total) =   4.91400  1.25157  6.16557
   spin  1
    eigenvalues: 
  0.969  0.969  0.991  0.992  0.992
    eigenvectors:
  0.000  0.000  1.000  0.000  0.000
  0.009  0.642  0.000  0.071  0.277
  0.642  0.009  0.000  0.277  0.071
  0.180  0.168  0.000  0.125  0.527
  0.168  0.180  0.000  0.527  0.125
    occupations:
  0.991 -0.000 -0.000 -0.000 -0.000
 -0.000  0.977 -0.000 -0.007 -0.009
 -0.000 -0.000  0.977 -0.009  0.007
 -0.000 -0.007 -0.009  0.984  0.000
 -0.000 -0.009  0.007  0.000  0.984
   spin  2
    eigenvalues: 
  0.179  0.193  0.193  0.344  0.344
    eigenvectors:
  1.000  0.000  0.000  0.000  0.000
  0.000  0.004  0.260  0.005  0.730
  0.000  0.260  0.004  0.730  0.005
  0.000  0.172  0.563  0.114  0.151
  0.000  0.563  0.172  0.151  0.114
    occupations:
  0.179 -0.000 -0.000 -0.000 -0.000
 -0.000  0.304 -0.000  0.054  0.039
 -0.000 -0.000  0.304  0.039 -0.054
 -0.000  0.054  0.039  0.233  0.000
 -0.000  0.039 -0.054  0.000  0.233
atomic mag. moment =   3.66242
N of occupied +U levels =   36.928377
 --- exit write_ns ---
 Atomic wfc used for LDA+U Projector are NOT orthogonalized
     Starting wfcs from file

     total cpu time spent up to now is       16.5 secs

     Self-consistent Calculation

     iteration #  1     ecut=    35.00 Ry     beta= 0.40
     CG style diagonalization
     c_bands:  2 eigenvalues not converged
     c_bands:  1 eigenvalues not converged
     c_bands:  2 eigenvalues not converged
     ethr =  1.00E-09,  avg # of iterations = 22.1
 --- enter write_ns ---
 LDA+U parameters:
alpha( 3) = -0.02000000
alpha( 4) = -0.02000000
atom    1   Tr[ns(na)] (up, down, total) =   1.14007  4.96082  6.10089
   spin  1
    eigenvalues: 
  0.162  0.172  0.172  0.317  0.317
    eigenvectors:
  1.000  0.000  0.000  0.000  0.000
  0.000  0.080  0.307  0.025  0.587
  0.000  0.307  0.080  0.587  0.025
  0.000  0.166  0.447  0.205  0.183
  0.000  0.447  0.166  0.183  0.205
    occupations:
  0.162 -0.000 -0.000 -0.000 -0.000
 -0.000  0.261 -0.000  0.037  0.060
 -0.000 -0.000  0.261  0.060 -0.037
 -0.000  0.037  0.060  0.228  0.000
 -0.000  0.060 -0.037  0.000  0.228
   spin  2
    eigenvalues: 
  0.990  0.990  0.993  0.994  0.994
    eigenvectors:
  0.000  0.000  1.000  0.000  0.000
  0.034  0.320  0.000  0.041  0.605
  0.320  0.034  0.000  0.605  0.041
  0.220  0.426  0.000  0.142  0.212
  0.426  0.220  0.000  0.212  0.142
    occupations:
  0.993 -0.000 -0.000 -0.000 -0.000
 -0.000  0.993 -0.000 -0.001 -0.002
 -0.000 -0.000  0.993 -0.002  0.001
 -0.000 -0.001 -0.002  0.991  0.000
 -0.000 -0.002  0.001  0.000  0.991
atomic mag. moment =  -3.82075
atom    2   Tr[ns(na)] (up, down, total) =   1.25707  4.91370  6.17076
   spin  1
    eigenvalues: 
  0.181  0.193  0.193  0.345  0.345
    eigenvectors:
  1.000  0.000  0.000  0.000  0.000
  0.000  0.191  0.074  0.238  0.497
  0.000  0.074  0.191  0.497  0.238
  0.000  0.102  0.634  0.000  0.264
  0.000  0.634  0.102  0.264  0.000
    occupations:
  0.181 -0.000 -0.000 -0.000 -0.000
 -0.000  0.305 -0.000 -0.054  0.039
 -0.000 -0.000  0.305  0.039  0.054
 -0.000 -0.054  0.039  0.233  0.000
 -0.000  0.039  0.054  0.000  0.233
   spin  2
    eigenvalues: 
  0.969  0.969  0.991  0.992  0.992
    eigenvectors:
  0.000  0.000  1.000  0.000  0.000
  0.480  0.171  0.000  0.299  0.050
  0.171  0.480  0.000  0.050  0.299
  0.004  0.344  0.000  0.044  0.607
  0.344  0.004  0.000  0.607  0.044
    occupations:
  0.991 -0.000 -0.000 -0.000 -0.000
 -0.000  0.977 -0.000  0.007 -0.009
 -0.000 -0.000  0.977 -0.009 -0.007
 -0.000  0.007 -0.009  0.984  0.000
 -0.000 -0.009 -0.007  0.000  0.984
atomic mag. moment =  -3.65663
atom    3   Tr[ns(na)] (up, down, total) =   1.28101  4.91835  6.19936
   spin  1
    eigenvalues: 
  0.201  0.201  0.211  0.334  0.334
    eigenvectors:
  0.000  0.000  1.000  0.000  0.000
  0.360  0.245  0.000  0.290  0.105
  0.245  0.360  0.000  0.105  0.290
  0.023  0.372  0.000  0.089  0.516
  0.372  0.023  0.000  0.516  0.089
    occupations:
  0.211 -0.000 -0.000 -0.000 -0.000
 -0.000  0.254 -0.000 -0.052  0.039
 -0.000 -0.000  0.254  0.039  0.052
 -0.000 -0.052  0.039  0.282  0.000
 -0.000  0.039  0.052  0.000  0.282
   spin  2
    eigenvalues: 
  0.973  0.973  0.990  0.991  0.991
    eigenvectors:
  0.000  0.000  1.000  0.000  0.000
  0.457  0.092  0.000  0.338  0.113
  0.092  0.457  0.000  0.113  0.338
  0.042  0.409  0.000  0.023  0.526
  0.409  0.042  0.000  0.526  0.023
    occupations:
  0.990 -0.000 -0.000 -0.000 -0.000
 -0.000  0.981 -0.000  0.006 -0.007
 -0.000 -0.000  0.981 -0.007 -0.006
 -0.000  0.006 -0.007  0.983  0.000
 -0.000 -0.007 -0.006  0.000  0.983
atomic mag. moment =  -3.63733
atom    4   Tr[ns(na)] (up, down, total) =   4.91771  1.27006  6.18776
   spin  1
    eigenvalues: 
  0.973  0.973  0.990  0.991  0.991
    eigenvectors:
  0.000  0.000  1.000  0.000  0.000
  0.010  0.538  0.000  0.051  0.401
  0.538  0.010  0.000  0.401  0.051
  0.189  0.263  0.000  0.126  0.422
  0.263  0.189  0.000  0.422  0.126
    occupations:
  0.990 -0.000 -0.000 -0.000 -0.000
 -0.000  0.981 -0.000 -0.006 -0.007
 -0.000 -0.000  0.981 -0.007  0.006
 -0.000 -0.006 -0.007  0.983  0.000
 -0.000 -0.007  0.006  0.000  0.983
   spin  2
    eigenvalues: 
  0.198  0.198  0.209  0.332  0.332
    eigenvectors:
  0.000  0.000  1.000  0.000  0.000
  0.001  0.602  0.000  0.001  0.395
  0.602  0.001  0.000  0.395  0.001
  0.158  0.239  0.000  0.183  0.420
  0.239  0.158  0.000  0.420  0.183
    occupations:
  0.209 -0.000 -0.000 -0.000 -0.000
 -0.000  0.252 -0.000  0.052  0.039
 -0.000 -0.000  0.252  0.039 -0.052
 -0.000  0.052  0.039  0.279  0.000
 -0.000  0.039 -0.052  0.000  0.279
atomic mag. moment =   3.64765
atom    5   Tr[ns(na)] (up, down, total) =   4.96178  1.16384  6.12562
   spin  1
    eigenvalues: 
  0.990  0.990  0.993  0.994  0.994
    eigenvectors:
  0.000  0.000  1.000  0.000  0.000
  0.344  0.007  0.000  0.435  0.214
  0.007  0.344  0.000  0.214  0.435
  0.135  0.514  0.000  0.000  0.351
  0.514  0.135  0.000  0.351  0.000
    occupations:
  0.993 -0.000 -0.000 -0.000 -0.000
 -0.000  0.993 -0.000  0.001 -0.002
 -0.000 -0.000  0.993 -0.002 -0.001
 -0.000  0.001 -0.002  0.992  0.000
 -0.000 -0.002 -0.001  0.000  0.992
   spin  2
    eigenvalues: 
  0.173  0.177  0.177  0.318  0.318
    eigenvectors:
  1.000  0.000  0.000  0.000  0.000
  0.000  0.366  0.019  0.594  0.021
  0.000  0.019  0.366  0.021  0.594
  0.000  0.061  0.554  0.046  0.339
  0.000  0.554  0.061  0.339  0.046
    occupations:
  0.173 -0.000 -0.000 -0.000 -0.000
 -0.000  0.264 -0.000 -0.035  0.059
 -0.000 -0.000  0.264  0.059  0.035
 -0.000 -0.035  0.059  0.231  0.000
 -0.000  0.059  0.035  0.000  0.231
atomic mag. moment =   3.79794
atom    6   Tr[ns(na)] (up, down, total) =   4.91340  1.26820  6.18160
   spin  1
    eigenvalues: 
  0.969  0.969  0.991  0.992  0.992
    eigenvectors:
  0.000  0.000  1.000  0.000  0.000
  0.009  0.643  0.000  0.070  0.277
  0.643  0.009  0.000  0.277  0.070
  0.179  0.169  0.000  0.125  0.527
  0.169  0.179  0.000  0.527  0.125
    occupations:
  0.991 -0.000 -0.000 -0.000 -0.000
 -0.000  0.977 -0.000 -0.007 -0.009
 -0.000 -0.000  0.977 -0.009  0.007
 -0.000 -0.007 -0.009  0.984  0.000
 -0.000 -0.009  0.007  0.000  0.984
   spin  2
    eigenvalues: 
  0.182  0.197  0.197  0.346  0.346
    eigenvectors:
  1.000  0.000  0.000  0.000  0.000
  0.000  0.003  0.257  0.006  0.734
  0.000  0.257  0.003  0.734  0.006
  0.000  0.173  0.567  0.111  0.149
  0.000  0.567  0.173  0.149  0.111
    occupations:
  0.182 -0.000 -0.000 -0.000 -0.000
 -0.000  0.307 -0.000  0.053  0.038
 -0.000 -0.000  0.307  0.038 -0.053
 -0.000  0.053  0.038  0.236  0.000
 -0.000  0.038 -0.053  0.000  0.236
atomic mag. moment =   3.64520
N of occupied +U levels =   36.966002
 --- exit write_ns ---

     negative rho (up, down):  1.235E-01 1.235E-01
 --- in v_hubbard ---
Hubbard energy   -0.0543
 -------

     total cpu time spent up to now is      798.4 secs

     total energy              =   -3195.09166430 Ry
     estimated scf accuracy    <       0.00063806 Ry

     total magnetization       =    -0.02 Bohr mag/cell
     absolute magnetization    =    27.28 Bohr mag/cell

     iteration #  2     ecut=    35.00 Ry     beta= 0.40
     CG style diagonalization
     ethr =  2.17E-07,  avg # of iterations =  3.4
 --- enter write_ns ---
 LDA+U parameters:
alpha( 3) = -0.02000000
alpha( 4) = -0.02000000
atom    1   Tr[ns(na)] (up, down, total) =   1.23132  4.96526  6.19658
   spin  1
    eigenvalues: 
  0.189  0.189  0.207  0.323  0.323
    eigenvectors:
  0.000  0.000  1.000  0.000  0.000
  0.094  0.280  0.000  0.031  0.595
  0.280  0.094  0.000  0.595  0.031
  0.168  0.458  0.000  0.209  0.165
  0.458  0.168  0.000  0.165  0.209
    occupations:
  0.207 -0.000 -0.000 -0.000 -0.000
 -0.000  0.273 -0.000  0.031  0.057
 -0.000 -0.000  0.273  0.057 -0.031
 -0.000  0.031  0.057  0.239  0.000
 -0.000  0.057 -0.031  0.000  0.239
   spin  2
    eigenvalues: 
  0.991  0.991  0.993  0.995  0.995
    eigenvectors:
  0.000  0.000  1.000  0.000  0.000
  0.058  0.236  0.000  0.035  0.671
  0.236  0.058  0.000  0.671  0.035
  0.231  0.475  0.000  0.165  0.130
  0.475  0.231  0.000  0.130  0.165
    occupations:
  0.993 -0.000 -0.000 -0.000 -0.000
 -0.000  0.994 -0.000 -0.001 -0.001
 -0.000 -0.000  0.994 -0.001  0.001
 -0.000 -0.001 -0.001  0.992  0.000
 -0.000 -0.001  0.001  0.000  0.992
atomic mag. moment =  -3.73394
atom    2   Tr[ns(na)] (up, down, total) =   1.27662  4.91465  6.19127
   spin  1
    eigenvalues: 
  0.181  0.203  0.203  0.345  0.345
    eigenvectors:
  1.000  0.000  0.000  0.000  0.000
  0.000  0.174  0.075  0.212  0.539
  0.000  0.075  0.174  0.539  0.212
  0.000  0.114  0.637  0.000  0.249
  0.000  0.637  0.114  0.249  0.000
    occupations:
  0.181 -0.000 -0.000 -0.000 -0.000
 -0.000  0.310 -0.000 -0.051  0.034
 -0.000 -0.000  0.310  0.034  0.051
 -0.000 -0.051  0.034  0.238  0.000
 -0.000  0.034  0.051  0.000  0.238
   spin  2
    eigenvalues: 
  0.970  0.970  0.991  0.992  0.992
    eigenvectors:
  0.000  0.000  1.000  0.000  0.000
  0.477  0.177  0.000  0.297  0.049
  0.177  0.477  0.000  0.049  0.297
  0.004  0.343  0.000  0.044  0.609
  0.343  0.004  0.000  0.609  0.044
    occupations:
  0.991 -0.000 -0.000 -0.000 -0.000
 -0.000  0.977 -0.000  0.007 -0.009
 -0.000 -0.000  0.977 -0.009 -0.007
 -0.000  0.007 -0.009  0.984  0.000
 -0.000 -0.009 -0.007  0.000  0.984
atomic mag. moment =  -3.63803
atom    3   Tr[ns(na)] (up, down, total) =   1.26647  4.92207  6.18855
   spin  1
    eigenvalues: 
  0.198  0.198  0.209  0.331  0.331
    eigenvectors:
  0.000  0.000  1.000  0.000  0.000
  0.369  0.244  0.000  0.293  0.094
  0.244  0.369  0.000  0.094  0.293
  0.021  0.366  0.000  0.094  0.519
  0.366  0.021  0.000  0.519  0.094
    occupations:
  0.209 -0.000 -0.000 -0.000 -0.000
 -0.000  0.249 -0.000 -0.051  0.039
 -0.000 -0.000  0.249  0.039  0.051
 -0.000 -0.051  0.039  0.279  0.000
 -0.000  0.039  0.051  0.000  0.279
   spin  2
    eigenvalues: 
  0.975  0.975  0.990  0.991  0.991
    eigenvectors:
  0.000  0.000  1.000  0.000  0.000
  0.451  0.079  0.000  0.348  0.123
  0.079  0.451  0.000  0.123  0.348
  0.051  0.420  0.000  0.020  0.510
  0.420  0.051  0.000  0.510  0.020
    occupations:
  0.990 -0.000 -0.000 -0.000 -0.000
 -0.000  0.982 -0.000  0.005 -0.006
 -0.000 -0.000  0.982 -0.006 -0.005
 -0.000  0.005 -0.006  0.983  0.000
 -0.000 -0.006 -0.005  0.000  0.983
atomic mag. moment =  -3.65560
atom    4   Tr[ns(na)] (up, down, total) =   4.91268  1.27891  6.19159
   spin  1
    eigenvalues: 
  0.970  0.970  0.990  0.991  0.991
    eigenvectors:
  0.000  0.000  1.000  0.000  0.000
  0.007  0.554  0.000  0.042  0.398
  0.554  0.007  0.000  0.398  0.042
  0.182  0.257  0.000  0.126  0.434
  0.257  0.182  0.000  0.434  0.126
    occupations:
  0.990 -0.000 -0.000 -0.000 -0.000
 -0.000  0.979 -0.000 -0.007 -0.008
 -0.000 -0.000  0.979 -0.008  0.007
 -0.000 -0.007 -0.008  0.982  0.000
 -0.000 -0.008  0.007  0.000  0.982
   spin  2
    eigenvalues: 
  0.200  0.200  0.212  0.334  0.334
    eigenvectors:
  0.000  0.000  1.000  0.000  0.000
  0.001  0.596  0.000  0.001  0.402
  0.596  0.001  0.000  0.402  0.001
  0.158  0.245  0.000  0.181  0.416
  0.245  0.158  0.000  0.416  0.181
    occupations:
  0.212 -0.000 -0.000 -0.000 -0.000
 -0.000  0.254 -0.000  0.053  0.039
 -0.000 -0.000  0.254  0.039 -0.053
 -0.000  0.053  0.039  0.280  0.000
 -0.000  0.039 -0.053  0.000  0.280
atomic mag. moment =   3.63377
atom    5   Tr[ns(na)] (up, down, total) =   4.94418  1.12242  6.06660
   spin  1
    eigenvalues: 
  0.982  0.982  0.993  0.994  0.994
    eigenvectors:
  0.000  0.000  1.000  0.000  0.000
  0.375  0.108  0.000  0.326  0.191
  0.108  0.375  0.000  0.191  0.326
  0.059  0.457  0.000  0.016  0.467
  0.457  0.059  0.000  0.467  0.016
    occupations:
  0.993 -0.000 -0.000 -0.000 -0.000
 -0.000  0.988 -0.000  0.004 -0.004
 -0.000 -0.000  0.988 -0.004 -0.004
 -0.000  0.004 -0.004  0.988  0.000
 -0.000 -0.004 -0.004  0.000  0.988
   spin  2
    eigenvalues: 
  0.158  0.170  0.170  0.312  0.312
    eigenvectors:
  1.000  0.000  0.000  0.000  0.000
  0.000  0.365  0.025  0.577  0.033
  0.000  0.025  0.365  0.033  0.577
  0.000  0.057  0.554  0.041  0.349
  0.000  0.554  0.057  0.349  0.041
    occupations:
  0.158 -0.000 -0.000 -0.000 -0.000
 -0.000  0.257 -0.000 -0.037  0.059
 -0.000 -0.000  0.257  0.059  0.037
 -0.000 -0.037  0.059  0.226  0.000
 -0.000  0.059  0.037  0.000  0.226
atomic mag. moment =   3.82177
atom    6   Tr[ns(na)] (up, down, total) =   4.89941  1.22144  6.12085
   spin  1
    eigenvalues: 
  0.962  0.962  0.991  0.992  0.992
    eigenvectors:
  0.000  0.000  1.000  0.000  0.000
  0.007  0.625  0.000  0.059  0.309
  0.625  0.007  0.000  0.309  0.059
  0.177  0.191  0.000  0.126  0.506
  0.191  0.177  0.000  0.506  0.126
    occupations:
  0.991 -0.000 -0.000 -0.000 -0.000
 -0.000  0.973 -0.000 -0.009 -0.011
 -0.000 -0.000  0.973 -0.011  0.009
 -0.000 -0.009 -0.011  0.981  0.000
 -0.000 -0.011  0.009  0.000  0.981
   spin  2
    eigenvalues: 
  0.174  0.185  0.185  0.339  0.339
    eigenvectors:
  1.000  0.000  0.000  0.000  0.000
  0.000  0.007  0.266  0.003  0.723
  0.000  0.266  0.007  0.723  0.003
  0.000  0.170  0.556  0.122  0.151
  0.000  0.556  0.170  0.151  0.122
    occupations:
  0.174 -0.000 -0.000 -0.000 -0.000
 -0.000  0.297 -0.000  0.054  0.043
 -0.000 -0.000  0.297  0.043 -0.054
 -0.000  0.054  0.043  0.227  0.000
 -0.000  0.043 -0.054  0.000  0.227
atomic mag. moment =   3.67797
N of occupied +U levels =   36.955442
 --- exit write_ns ---

     negative rho (up, down):  1.235E-01 1.235E-01
 --- in v_hubbard ---
Hubbard energy   -0.0543
 -------

     total cpu time spent up to now is      919.0 secs

     total energy              =   -3195.09090685 Ry
     estimated scf accuracy    <       0.02038447 Ry

     total magnetization       =    -0.01 Bohr mag/cell
     absolute magnetization    =    27.17 Bohr mag/cell

     iteration #  3     ecut=    35.00 Ry     beta= 0.40
     CG style diagonalization
     ethr =  2.17E-07,  avg # of iterations =  3.3
 --- enter write_ns ---
 LDA+U parameters:
alpha( 3) = -0.02000000
alpha( 4) = -0.02000000
atom    1   Tr[ns(na)] (up, down, total) =   1.13962  4.95982  6.09944
   spin  1
    eigenvalues: 
  0.162  0.173  0.173  0.316  0.316
    eigenvectors:
  1.000  0.000  0.000  0.000  0.000
  0.000  0.079  0.312  0.025  0.584
  0.000  0.312  0.079  0.584  0.025
  0.000  0.165  0.444  0.205  0.186
  0.000  0.444  0.165  0.186  0.205
    occupations:
  0.162 -0.000 -0.000 -0.000 -0.000
 -0.000  0.260 -0.000  0.037  0.060
 -0.000 -0.000  0.260  0.060 -0.037
 -0.000  0.037  0.060  0.229  0.000
 -0.000  0.060 -0.037  0.000  0.229
   spin  2
    eigenvalues: 
  0.989  0.989  0.993  0.994  0.994
    eigenvectors:
  0.000  0.000  1.000  0.000  0.000
  0.029  0.348  0.000  0.043  0.579
  0.348  0.029  0.000  0.579  0.043
  0.217  0.405  0.000  0.137  0.240
  0.405  0.217  0.000  0.240  0.137
    occupations:
  0.993 -0.000 -0.000 -0.000 -0.000
 -0.000  0.992 -0.000 -0.002 -0.002
 -0.000 -0.000  0.992 -0.002  0.002
 -0.000 -0.002 -0.002  0.991  0.000
 -0.000 -0.002  0.002  0.000  0.991
atomic mag. moment =  -3.82020
atom    2   Tr[ns(na)] (up, down, total) =   1.23753  4.90866  6.14619
   spin  1
    eigenvalues: 
  0.177  0.189  0.189  0.341  0.341
    eigenvectors:
  1.000  0.000  0.000  0.000  0.000
  0.000  0.201  0.071  0.253  0.474
  0.000  0.071  0.201  0.474  0.253
  0.000  0.099  0.629  0.000  0.272
  0.000  0.629  0.099  0.272  0.000
    occupations:
  0.177 -0.000 -0.000 -0.000 -0.000
 -0.000  0.300 -0.000 -0.054  0.041
 -0.000 -0.000  0.300  0.041  0.054
 -0.000 -0.054  0.041  0.230  0.000
 -0.000  0.041  0.054  0.000  0.230
   spin  2
    eigenvalues: 
  0.967  0.967  0.991  0.992  0.992
    eigenvectors:
  0.000  0.000  1.000  0.000  0.000
  0.478  0.173  0.000  0.298  0.051
  0.173  0.478  0.000  0.051  0.298
  0.004  0.345  0.000  0.044  0.607
  0.345  0.004  0.000  0.607  0.044
    occupations:
  0.991 -0.000 -0.000 -0.000 -0.000
 -0.000  0.976 -0.000  0.007 -0.010
 -0.000 -0.000  0.976 -0.010 -0.007
 -0.000  0.007 -0.010  0.983  0.000
 -0.000 -0.010 -0.007  0.000  0.983
atomic mag. moment =  -3.67113
atom    3   Tr[ns(na)] (up, down, total) =   1.25416  4.91528  6.16945
   spin  1
    eigenvalues: 
  0.195  0.195  0.205  0.330  0.330
    eigenvectors:
  0.000  0.000  1.000  0.000  0.000
  0.364  0.230  0.000  0.302  0.104
  0.230  0.364  0.000  0.104  0.302
  0.025  0.382  0.000  0.086  0.508
  0.382  0.025  0.000  0.508  0.086
    occupations:
  0.205 -0.000 -0.000 -0.000 -0.000
 -0.000  0.249 -0.000 -0.053  0.040
 -0.000 -0.000  0.249  0.040  0.053
 -0.000 -0.053  0.040  0.275  0.000
 -0.000  0.040  0.053  0.000  0.275
   spin  2
    eigenvalues: 
  0.972  0.972  0.990  0.991  0.991
    eigenvectors:
  0.000  0.000  1.000  0.000  0.000
  0.458  0.092  0.000  0.338  0.112
  0.092  0.458  0.000  0.112  0.338
  0.042  0.408  0.000  0.023  0.527
  0.408  0.042  0.000  0.527  0.023
    occupations:
  0.990 -0.000 -0.000 -0.000 -0.000
 -0.000  0.980 -0.000  0.006 -0.007
 -0.000 -0.000  0.980 -0.007 -0.006
 -0.000  0.006 -0.007  0.982  0.000
 -0.000 -0.007 -0.006  0.000  0.982
atomic mag. moment =  -3.66112
atom    4   Tr[ns(na)] (up, down, total) =   4.92209  1.29183  6.21392
   spin  1
    eigenvalues: 
  0.975  0.975  0.990  0.991  0.991
    eigenvectors:
  0.000  0.000  1.000  0.000  0.000
  0.011  0.528  0.000  0.050  0.411
  0.528  0.011  0.000  0.411  0.050
  0.191  0.270  0.000  0.126  0.413
  0.270  0.191  0.000  0.413  0.126
    occupations:
  0.990 -0.000 -0.000 -0.000 -0.000
 -0.000  0.982 -0.000 -0.006 -0.006
 -0.000 -0.000  0.982 -0.006  0.006
 -0.000 -0.006 -0.006  0.984  0.000
 -0.000 -0.006  0.006  0.000  0.984
   spin  2
    eigenvalues: 
  0.204  0.204  0.213  0.336  0.336
    eigenvectors:
  0.000  0.000  1.000  0.000  0.000
  0.002  0.616  0.000  0.001  0.381
  0.616  0.002  0.000  0.381  0.001
  0.152  0.230  0.000  0.182  0.437
  0.230  0.152  0.000  0.437  0.182
    occupations:
  0.213 -0.000 -0.000 -0.000 -0.000
 -0.000  0.254 -0.000  0.052  0.037
 -0.000 -0.000  0.254  0.037 -0.052
 -0.000  0.052  0.037  0.285  0.000
 -0.000  0.037 -0.052  0.000  0.285
atomic mag. moment =   3.63026
atom    5   Tr[ns(na)] (up, down, total) =   4.96292  1.15233  6.11524
   spin  1
    eigenvalues: 
  0.991  0.991  0.993  0.994  0.994
    eigenvectors:
  0.000  0.000  1.000  0.000  0.000
  0.313  0.001  0.000  0.455  0.231
  0.001  0.313  0.000  0.231  0.455
  0.156  0.530  0.000  0.002  0.312
  0.530  0.156  0.000  0.312  0.002
    occupations:
  0.993 -0.000 -0.000 -0.000 -0.000
 -0.000  0.993 -0.000  0.001 -0.001
 -0.000 -0.000  0.993 -0.001 -0.001
 -0.000  0.001 -0.001  0.992  0.000
 -0.000 -0.001 -0.001  0.000  0.992
   spin  2
    eigenvalues: 
  0.171  0.174  0.174  0.316  0.316
    eigenvectors:
  1.000  0.000  0.000  0.000  0.000
  0.000  0.365  0.018  0.594  0.023
  0.000  0.018  0.365  0.023  0.594
  0.000  0.061  0.556  0.044  0.339
  0.000  0.556  0.061  0.339  0.044
    occupations:
  0.171 -0.000 -0.000 -0.000 -0.000
 -0.000  0.262 -0.000 -0.036  0.059
 -0.000 -0.000  0.262  0.059  0.036
 -0.000 -0.036  0.059  0.229  0.000
 -0.000  0.059  0.036  0.000  0.229
atomic mag. moment =   3.81059
atom    6   Tr[ns(na)] (up, down, total) =   4.91594  1.26011  6.17605
   spin  1
    eigenvalues: 
  0.970  0.970  0.991  0.992  0.992
    eigenvectors:
  0.000  0.000  1.000  0.000  0.000
  0.010  0.642  0.000  0.073  0.276
  0.642  0.010  0.000  0.276  0.073
  0.181  0.168  0.000  0.124  0.527
  0.168  0.181  0.000  0.527  0.124
    occupations:
  0.991 -0.000 -0.000 -0.000 -0.000
 -0.000  0.978 -0.000 -0.006 -0.008
 -0.000 -0.000  0.978 -0.008  0.006
 -0.000 -0.006 -0.008  0.985  0.000
 -0.000 -0.008  0.006  0.000  0.985
   spin  2
    eigenvalues: 
  0.180  0.196  0.196  0.345  0.345
    eigenvectors:
  1.000  0.000  0.000  0.000  0.000
  0.000  0.003  0.254  0.007  0.736
  0.000  0.254  0.003  0.736  0.007
  0.000  0.173  0.569  0.109  0.149
  0.000  0.569  0.173  0.149  0.109
    occupations:
  0.180 -0.000 -0.000 -0.000 -0.000
 -0.000  0.306 -0.000  0.053  0.037
 -0.000 -0.000  0.306  0.037 -0.053
 -0.000  0.053  0.037  0.234  0.000
 -0.000  0.037 -0.053  0.000  0.234
atomic mag. moment =   3.65583
N of occupied +U levels =   36.920299
 --- exit write_ns ---

     negative rho (up, down):  1.235E-01 1.235E-01
 --- in v_hubbard ---
Hubbard energy   -0.0543
 -------

     total cpu time spent up to now is     1037.9 secs

     total energy              =   -3195.09180668 Ry
     estimated scf accuracy    <       0.00303855 Ry

     total magnetization       =    -0.02 Bohr mag/cell
     absolute magnetization    =    27.30 Bohr mag/cell

     iteration #  4     ecut=    35.00 Ry     beta= 0.40
     CG style diagonalization
     ethr =  2.17E-07,  avg # of iterations =  3.0
 --- enter write_ns ---
 LDA+U parameters:
alpha( 3) = -0.02000000
alpha( 4) = -0.02000000
atom    1   Tr[ns(na)] (up, down, total) =   1.14805  4.96171  6.10977
   spin  1
    eigenvalues: 
  0.167  0.174  0.174  0.317  0.317
    eigenvectors:
  1.000  0.000  0.000  0.000  0.000
  0.000  0.081  0.305  0.026  0.587
  0.000  0.305  0.081  0.587  0.026
  0.000  0.166  0.448  0.205  0.182
  0.000  0.448  0.166  0.182  0.205
    occupations:
  0.167 -0.000 -0.000 -0.000 -0.000
 -0.000  0.261 -0.000  0.036  0.059
 -0.000 -0.000  0.261  0.059 -0.036
 -0.000  0.036  0.059  0.229  0.000
 -0.000  0.059 -0.036  0.000  0.229
   spin  2
    eigenvalues: 
  0.990  0.990  0.993  0.994  0.994
    eigenvectors:
  0.000  0.000  1.000  0.000  0.000
  0.040  0.302  0.000  0.044  0.614
  0.302  0.040  0.000  0.614  0.044
  0.224  0.435  0.000  0.144  0.197
  0.435  0.224  0.000  0.197  0.144
    occupations:
  0.993 -0.000 -0.000 -0.000 -0.000
 -0.000  0.993 -0.000 -0.001 -0.002
 -0.000 -0.000  0.993 -0.002  0.001
 -0.000 -0.001 -0.002  0.992  0.000
 -0.000 -0.002  0.001  0.000  0.992
atomic mag. moment =  -3.81366
atom    2   Tr[ns(na)] (up, down, total) =   1.26066  4.91433  6.17498
   spin  1
    eigenvalues: 
  0.181  0.195  0.195  0.345  0.345
    eigenvectors:
  1.000  0.000  0.000  0.000  0.000
  0.000  0.187  0.074  0.233  0.506
  0.000  0.074  0.187  0.506  0.233
  0.000  0.105  0.634  0.000  0.261
  0.000  0.634  0.105  0.261  0.000
    occupations:
  0.181 -0.000 -0.000 -0.000 -0.000
 -0.000  0.306 -0.000 -0.054  0.039
 -0.000 -0.000  0.306  0.039  0.054
 -0.000 -0.054  0.039  0.234  0.000
 -0.000  0.039  0.054  0.000  0.234
   spin  2
    eigenvalues: 
  0.969  0.969  0.991  0.992  0.992
    eigenvectors:
  0.000  0.000  1.000  0.000  0.000
  0.481  0.171  0.000  0.299  0.050
  0.171  0.481  0.000  0.050  0.299
  0.004  0.344  0.000  0.044  0.608
  0.344  0.004  0.000  0.608  0.044
    occupations:
  0.991 -0.000 -0.000 -0.000 -0.000
 -0.000  0.977 -0.000  0.007 -0.009
 -0.000 -0.000  0.977 -0.009 -0.007
 -0.000  0.007 -0.009  0.984  0.000
 -0.000 -0.009 -0.007  0.000  0.984
atomic mag. moment =  -3.65367
atom    3   Tr[ns(na)] (up, down, total) =   1.27398  4.91858  6.19256
   spin  1
    eigenvalues: 
  0.199  0.199  0.209  0.333  0.333
    eigenvectors:
  0.000  0.000  1.000  0.000  0.000
  0.361  0.244  0.000  0.291  0.104
  0.244  0.361  0.000  0.104  0.291
  0.023  0.372  0.000  0.089  0.516
  0.372  0.023  0.000  0.516  0.089
    occupations:
  0.209 -0.000 -0.000 -0.000 -0.000
 -0.000  0.252 -0.000 -0.053  0.039
 -0.000 -0.000  0.252  0.039  0.053
 -0.000 -0.053  0.039  0.280  0.000
 -0.000  0.039  0.053  0.000  0.280
   spin  2
    eigenvalues: 
  0.973  0.973  0.990  0.991  0.991
    eigenvectors:
  0.000  0.000  1.000  0.000  0.000
  0.458  0.088  0.000  0.340  0.114
  0.088  0.458  0.000  0.114  0.340
  0.044  0.410  0.000  0.023  0.523
  0.410  0.044  0.000  0.523  0.023
    occupations:
  0.990 -0.000 -0.000 -0.000 -0.000
 -0.000  0.981 -0.000  0.006 -0.007
 -0.000 -0.000  0.981 -0.007 -0.006
 -0.000  0.006 -0.007  0.983  0.000
 -0.000 -0.007 -0.006  0.000  0.983
atomic mag. moment =  -3.64460
atom    4   Tr[ns(na)] (up, down, total) =   4.91719  1.26717  6.18435
   spin  1
    eigenvalues: 
  0.972  0.972  0.990  0.991  0.991
    eigenvectors:
  0.000  0.000  1.000  0.000  0.000
  0.010  0.539  0.000  0.050  0.401
  0.539  0.010  0.000  0.401  0.050
  0.189  0.262  0.000  0.126  0.423
  0.262  0.189  0.000  0.423  0.126
    occupations:
  0.990 -0.000 -0.000 -0.000 -0.000
 -0.000  0.981 -0.000 -0.006 -0.007
 -0.000 -0.000  0.981 -0.007  0.006
 -0.000 -0.006 -0.007  0.983  0.000
 -0.000 -0.007  0.006  0.000  0.983
   spin  2
    eigenvalues: 
  0.198  0.198  0.208  0.332  0.332
    eigenvectors:
  0.000  0.000  1.000  0.000  0.000
  0.001  0.601  0.000  0.001  0.397
  0.601  0.001  0.000  0.397  0.001
  0.158  0.241  0.000  0.183  0.419
  0.241  0.158  0.000  0.419  0.183
    occupations:
  0.208 -0.000 -0.000 -0.000 -0.000
 -0.000  0.251 -0.000  0.053  0.039
 -0.000 -0.000  0.251  0.039 -0.053
 -0.000  0.053  0.039  0.278  0.000
 -0.000  0.039 -0.053  0.000  0.278
atomic mag. moment =   3.65002
atom    5   Tr[ns(na)] (up, down, total) =   4.96118  1.14593  6.10710
   spin  1
    eigenvalues: 
  0.990  0.990  0.993  0.994  0.994
    eigenvectors:
  0.000  0.000  1.000  0.000  0.000
  0.343  0.007  0.000  0.433  0.216
  0.007  0.343  0.000  0.216  0.433
  0.135  0.514  0.000  0.000  0.351
  0.514  0.135  0.000  0.351  0.000
    occupations:
  0.993 -0.000 -0.000 -0.000 -0.000
 -0.000  0.993 -0.000  0.001 -0.002
 -0.000 -0.000  0.993 -0.002 -0.001
 -0.000  0.001 -0.002  0.991  0.000
 -0.000 -0.002 -0.001  0.000  0.991
   spin  2
    eigenvalues: 
  0.166  0.173  0.173  0.317  0.317
    eigenvectors:
  1.000  0.000  0.000  0.000  0.000
  0.000  0.367  0.021  0.587  0.026
  0.000  0.021  0.367  0.026  0.587
  0.000  0.060  0.553  0.044  0.343
  0.000  0.553  0.060  0.343  0.044
    occupations:
  0.166 -0.000 -0.000 -0.000 -0.000
 -0.000  0.261 -0.000 -0.036  0.059
 -0.000 -0.000  0.261  0.059  0.036
 -0.000 -0.036  0.059  0.229  0.000
 -0.000  0.059  0.036  0.000  0.229
atomic mag. moment =   3.81525
atom    6   Tr[ns(na)] (up, down, total) =   4.91266  1.25216  6.16482
   spin  1
    eigenvalues: 
  0.969  0.969  0.991  0.992  0.992
    eigenvectors:
  0.000  0.000  1.000  0.000  0.000
  0.009  0.642  0.000  0.071  0.277
  0.642  0.009  0.000  0.277  0.071
  0.180  0.169  0.000  0.125  0.527
  0.169  0.180  0.000  0.527  0.125
    occupations:
  0.991 -0.000 -0.000 -0.000 -0.000
 -0.000  0.977 -0.000 -0.007 -0.009
 -0.000 -0.000  0.977 -0.009  0.007
 -0.000 -0.007 -0.009  0.984  0.000
 -0.000 -0.009  0.007  0.000  0.984
   spin  2
    eigenvalues: 
  0.179  0.193  0.193  0.344  0.344
    eigenvectors:
  1.000  0.000  0.000  0.000  0.000
  0.000  0.004  0.260  0.005  0.730
  0.000  0.260  0.004  0.730  0.005
  0.000  0.172  0.563  0.114  0.151
  0.000  0.563  0.172  0.151  0.114
    occupations:
  0.179 -0.000 -0.000 -0.000 -0.000
 -0.000  0.304 -0.000  0.054  0.039
 -0.000 -0.000  0.304  0.039 -0.054
 -0.000  0.054  0.039  0.233  0.000
 -0.000  0.039 -0.054  0.000  0.233
atomic mag. moment =   3.66050
N of occupied +U levels =   36.933588
 --- exit write_ns ---

     negative rho (up, down):  1.235E-01 1.235E-01
 --- in v_hubbard ---
Hubbard energy   -0.0543
 -------

     total cpu time spent up to now is     1145.4 secs

     total energy              =   -3195.09196714 Ry
     estimated scf accuracy    <       0.00015695 Ry

     total magnetization       =     0.00 Bohr mag/cell
     absolute magnetization    =    27.30 Bohr mag/cell

     iteration #  5     ecut=    35.00 Ry     beta= 0.40
     CG style diagonalization
     ethr =  5.34E-08,  avg # of iterations =  3.0
 --- enter write_ns ---
 LDA+U parameters:
alpha( 3) = -0.02000000
alpha( 4) = -0.02000000
atom    1   Tr[ns(na)] (up, down, total) =   1.15064  4.96156  6.11220
   spin  1
    eigenvalues: 
  0.167  0.174  0.174  0.317  0.317
    eigenvectors:
  1.000  0.000  0.000  0.000  0.000
  0.000  0.081  0.305  0.026  0.588
  0.000  0.305  0.081  0.588  0.026
  0.000  0.166  0.448  0.205  0.181
  0.000  0.448  0.166  0.181  0.205
    occupations:
  0.167 -0.000 -0.000 -0.000 -0.000
 -0.000  0.262 -0.000  0.036  0.059
 -0.000 -0.000  0.262  0.059 -0.036
 -0.000  0.036  0.059  0.230  0.000
 -0.000  0.059 -0.036  0.000  0.230
   spin  2
    eigenvalues: 
  0.990  0.990  0.993  0.994  0.994
    eigenvectors:
  0.000  0.000  1.000  0.000  0.000
  0.038  0.310  0.000  0.044  0.609
  0.310  0.038  0.000  0.609  0.044
  0.222  0.430  0.000  0.143  0.204
  0.430  0.222  0.000  0.204  0.143
    occupations:
  0.993 -0.000 -0.000 -0.000 -0.000
 -0.000  0.993 -0.000 -0.001 -0.002
 -0.000 -0.000  0.993 -0.002  0.001
 -0.000 -0.001 -0.002  0.991  0.000
 -0.000 -0.002  0.001  0.000  0.991
atomic mag. moment =  -3.81093
atom    2   Tr[ns(na)] (up, down, total) =   1.25527  4.91289  6.16815
   spin  1
    eigenvalues: 
  0.180  0.194  0.194  0.344  0.344
    eigenvectors:
  1.000  0.000  0.000  0.000  0.000
  0.000  0.190  0.074  0.237  0.499
  0.000  0.074  0.190  0.499  0.237
  0.000  0.103  0.633  0.000  0.264
  0.000  0.633  0.103  0.264  0.000
    occupations:
  0.180 -0.000 -0.000 -0.000 -0.000
 -0.000  0.304 -0.000 -0.054  0.039
 -0.000 -0.000  0.304  0.039  0.054
 -0.000 -0.054  0.039  0.233  0.000
 -0.000  0.039  0.054  0.000  0.233
   spin  2
    eigenvalues: 
  0.969  0.969  0.991  0.992  0.992
    eigenvectors:
  0.000  0.000  1.000  0.000  0.000
  0.479  0.172  0.000  0.299  0.050
  0.172  0.479  0.000  0.050  0.299
  0.004  0.344  0.000  0.044  0.608
  0.344  0.004  0.000  0.608  0.044
    occupations:
  0.991 -0.000 -0.000 -0.000 -0.000
 -0.000  0.977 -0.000  0.007 -0.009
 -0.000 -0.000  0.977 -0.009 -0.007
 -0.000  0.007 -0.009  0.984  0.000
 -0.000 -0.009 -0.007  0.000  0.984
atomic mag. moment =  -3.65762
atom    3   Tr[ns(na)] (up, down, total) =   1.27433  4.91830  6.19264
   spin  1
    eigenvalues: 
  0.199  0.199  0.210  0.333  0.333
    eigenvectors:
  0.000  0.000  1.000  0.000  0.000
  0.361  0.244  0.000  0.291  0.104
  0.244  0.361  0.000  0.104  0.291
  0.023  0.372  0.000  0.089  0.516
  0.372  0.023  0.000  0.516  0.089
    occupations:
  0.210 -0.000 -0.000 -0.000 -0.000
 -0.000  0.252 -0.000 -0.052  0.039
 -0.000 -0.000  0.252  0.039  0.052
 -0.000 -0.052  0.039  0.280  0.000
 -0.000  0.039  0.052  0.000  0.280
   spin  2
    eigenvalues: 
  0.973  0.973  0.990  0.991  0.991
    eigenvectors:
  0.000  0.000  1.000  0.000  0.000
  0.456  0.090  0.000  0.340  0.114
  0.090  0.456  0.000  0.114  0.340
  0.043  0.411  0.000  0.023  0.524
  0.411  0.043  0.000  0.524  0.023
    occupations:
  0.990 -0.000 -0.000 -0.000 -0.000
 -0.000  0.981 -0.000  0.006 -0.007
 -0.000 -0.000  0.981 -0.007 -0.006
 -0.000  0.006 -0.007  0.983  0.000
 -0.000 -0.007 -0.006  0.000  0.983
atomic mag. moment =  -3.64397
atom    4   Tr[ns(na)] (up, down, total) =   4.91835  1.27397  6.19231
   spin  1
    eigenvalues: 
  0.973  0.973  0.990  0.991  0.991
    eigenvectors:
  0.000  0.000  1.000  0.000  0.000
  0.010  0.536  0.000  0.050  0.403
  0.536  0.010  0.000  0.403  0.050
  0.190  0.264  0.000  0.126  0.420
  0.264  0.190  0.000  0.420  0.126
    occupations:
  0.990 -0.000 -0.000 -0.000 -0.000
 -0.000  0.981 -0.000 -0.006 -0.007
 -0.000 -0.000  0.981 -0.007  0.006
 -0.000 -0.006 -0.007  0.983  0.000
 -0.000 -0.007  0.006  0.000  0.983
   spin  2
    eigenvalues: 
  0.199  0.199  0.209  0.333  0.333
    eigenvectors:
  0.000  0.000  1.000  0.000  0.000
  0.001  0.604  0.000  0.001  0.394
  0.604  0.001  0.000  0.394  0.001
  0.157  0.238  0.000  0.182  0.423
  0.238  0.157  0.000  0.423  0.182
    occupations:
  0.209 -0.000 -0.000 -0.000 -0.000
 -0.000  0.252 -0.000  0.053  0.039
 -0.000 -0.000  0.252  0.039 -0.053
 -0.000  0.053  0.039  0.280  0.000
 -0.000  0.039 -0.053  0.000  0.280
atomic mag. moment =   3.64438
atom    5   Tr[ns(na)] (up, down, total) =   4.96149  1.15053  6.11201
   spin  1
    eigenvalues: 
  0.990  0.990  0.993  0.994  0.994
    eigenvectors:
  0.000  0.000  1.000  0.000  0.000
  0.342  0.007  0.000  0.435  0.217
  0.007  0.342  0.000  0.217  0.435
  0.136  0.515  0.000  0.000  0.348
  0.515  0.136  0.000  0.348  0.000
    occupations:
  0.993 -0.000 -0.000 -0.000 -0.000
 -0.000  0.993 -0.000  0.001 -0.002
 -0.000 -0.000  0.993 -0.002 -0.001
 -0.000  0.001 -0.002  0.991  0.000
 -0.000 -0.002 -0.001  0.000  0.991
   spin  2
    eigenvalues: 
  0.167  0.174  0.174  0.317  0.317
    eigenvectors:
  1.000  0.000  0.000  0.000  0.000
  0.000  0.367  0.020  0.588  0.025
  0.000  0.020  0.367  0.025  0.588
  0.000  0.060  0.554  0.044  0.343
  0.000  0.554  0.060  0.343  0.044
    occupations:
  0.167 -0.000 -0.000 -0.000 -0.000
 -0.000  0.262 -0.000 -0.036  0.059
 -0.000 -0.000  0.262  0.059  0.036
 -0.000 -0.036  0.059  0.230  0.000
 -0.000  0.059  0.036  0.000  0.230
atomic mag. moment =   3.81096
atom    6   Tr[ns(na)] (up, down, total) =   4.91287  1.25591  6.16878
   spin  1
    eigenvalues: 
  0.969  0.969  0.991  0.992  0.992
    eigenvectors:
  0.000  0.000  1.000  0.000  0.000
  0.009  0.642  0.000  0.071  0.278
  0.642  0.009  0.000  0.278  0.071
  0.180  0.169  0.000  0.125  0.527
  0.169  0.180  0.000  0.527  0.125
    occupations:
  0.991 -0.000 -0.000 -0.000 -0.000
 -0.000  0.977 -0.000 -0.007 -0.009
 -0.000 -0.000  0.977 -0.009  0.007
 -0.000 -0.007 -0.009  0.984  0.000
 -0.000 -0.009  0.007  0.000  0.984
   spin  2
    eigenvalues: 
  0.180  0.194  0.194  0.344  0.344
    eigenvectors:
  1.000  0.000  0.000  0.000  0.000
  0.000  0.004  0.259  0.005  0.731
  0.000  0.259  0.004  0.731  0.005
  0.000  0.172  0.564  0.114  0.150
  0.000  0.564  0.172  0.150  0.114
    occupations:
  0.180 -0.000 -0.000 -0.000 -0.000
 -0.000  0.305 -0.000  0.054  0.039
 -0.000 -0.000  0.305  0.039 -0.054
 -0.000  0.054  0.039  0.233  0.000
 -0.000  0.039 -0.054  0.000  0.233
atomic mag. moment =   3.65696
N of occupied +U levels =   36.946096
 --- exit write_ns ---

     negative rho (up, down):  1.235E-01 1.235E-01
 --- in v_hubbard ---
Hubbard energy   -0.0543
 -------

     total cpu time spent up to now is     1253.5 secs

     total energy              =   -3195.09197941 Ry
     estimated scf accuracy    <       0.00000639 Ry

     total magnetization       =    -0.00 Bohr mag/cell
     absolute magnetization    =    27.29 Bohr mag/cell

     iteration #  6     ecut=    35.00 Ry     beta= 0.40
     CG style diagonalization
     ethr =  2.17E-09,  avg # of iterations =  3.3
 --- enter write_ns ---
 LDA+U parameters:
alpha( 3) = -0.02000000
alpha( 4) = -0.02000000
atom    1   Tr[ns(na)] (up, down, total) =   1.15109  4.96151  6.11260
   spin  1
    eigenvalues: 
  0.167  0.174  0.174  0.317  0.317
    eigenvectors:
  1.000  0.000  0.000  0.000  0.000
  0.000  0.082  0.305  0.026  0.588
  0.000  0.305  0.082  0.588  0.026
  0.000  0.165  0.448  0.205  0.182
  0.000  0.448  0.165  0.182  0.205
    occupations:
  0.167 -0.000 -0.000 -0.000 -0.000
 -0.000  0.262 -0.000  0.036  0.059
 -0.000 -0.000  0.262  0.059 -0.036
 -0.000  0.036  0.059  0.230  0.000
 -0.000  0.059 -0.036  0.000  0.230
   spin  2
    eigenvalues: 
  0.990  0.990  0.993  0.994  0.994
    eigenvectors:
  0.000  0.000  1.000  0.000  0.000
  0.037  0.311  0.000  0.043  0.610
  0.311  0.037  0.000  0.610  0.043
  0.222  0.430  0.000  0.144  0.204
  0.430  0.222  0.000  0.204  0.144
    occupations:
  0.993 -0.000 -0.000 -0.000 -0.000
 -0.000  0.993 -0.000 -0.001 -0.002
 -0.000 -0.000  0.993 -0.002  0.001
 -0.000 -0.001 -0.002  0.991  0.000
 -0.000 -0.002  0.001  0.000  0.991
atomic mag. moment =  -3.81041
atom    2   Tr[ns(na)] (up, down, total) =   1.25786  4.91331  6.17118
   spin  1
    eigenvalues: 
  0.180  0.194  0.194  0.345  0.345
    eigenvectors:
  1.000  0.000  0.000  0.000  0.000
  0.000  0.189  0.074  0.236  0.501
  0.000  0.074  0.189  0.501  0.236
  0.000  0.104  0.633  0.000  0.263
  0.000  0.633  0.104  0.263  0.000
    occupations:
  0.180 -0.000 -0.000 -0.000 -0.000
 -0.000  0.305 -0.000 -0.054  0.039
 -0.000 -0.000  0.305  0.039  0.054
 -0.000 -0.054  0.039  0.234  0.000
 -0.000  0.039  0.054  0.000  0.234
   spin  2
    eigenvalues: 
  0.969  0.969  0.991  0.992  0.992
    eigenvectors:
  0.000  0.000  1.000  0.000  0.000
  0.478  0.173  0.000  0.299  0.050
  0.173  0.478  0.000  0.050  0.299
  0.004  0.344  0.000  0.044  0.608
  0.344  0.004  0.000  0.608  0.044
    occupations:
  0.991 -0.000 -0.000 -0.000 -0.000
 -0.000  0.977 -0.000  0.007 -0.009
 -0.000 -0.000  0.977 -0.009 -0.007
 -0.000  0.007 -0.009  0.984  0.000
 -0.000 -0.009 -0.007  0.000  0.984
atomic mag. moment =  -3.65545
atom    3   Tr[ns(na)] (up, down, total) =   1.27190  4.91783  6.18974
   spin  1
    eigenvalues: 
  0.199  0.199  0.209  0.333  0.333
    eigenvectors:
  0.000  0.000  1.000  0.000  0.000
  0.362  0.242  0.000  0.292  0.104
  0.242  0.362  0.000  0.104  0.292
  0.023  0.373  0.000  0.089  0.515
  0.373  0.023  0.000  0.515  0.089
    occupations:
  0.209 -0.000 -0.000 -0.000 -0.000
 -0.000  0.252 -0.000 -0.052  0.039
 -0.000 -0.000  0.252  0.039  0.052
 -0.000 -0.052  0.039  0.280  0.000
 -0.000  0.039  0.052  0.000  0.280
   spin  2
    eigenvalues: 
  0.973  0.973  0.990  0.991  0.991
    eigenvectors:
  0.000  0.000  1.000  0.000  0.000
  0.457  0.090  0.000  0.339  0.114
  0.090  0.457  0.000  0.114  0.339
  0.043  0.410  0.000  0.023  0.524
  0.410  0.043  0.000  0.524  0.023
    occupations:
  0.990 -0.000 -0.000 -0.000 -0.000
 -0.000  0.981 -0.000  0.006 -0.007
 -0.000 -0.000  0.981 -0.007 -0.006
 -0.000  0.006 -0.007  0.983  0.000
 -0.000 -0.007 -0.006  0.000  0.983
atomic mag. moment =  -3.64593
atom    4   Tr[ns(na)] (up, down, total) =   4.91792  1.27226  6.19018
   spin  1
    eigenvalues: 
  0.973  0.973  0.990  0.991  0.991
    eigenvectors:
  0.000  0.000  1.000  0.000  0.000
  0.010  0.537  0.000  0.050  0.402
  0.537  0.010  0.000  0.402  0.050
  0.189  0.263  0.000  0.126  0.421
  0.263  0.189  0.000  0.421  0.126
    occupations:
  0.990 -0.000 -0.000 -0.000 -0.000
 -0.000  0.981 -0.000 -0.006 -0.007
 -0.000 -0.000  0.981 -0.007  0.006
 -0.000 -0.006 -0.007  0.983  0.000
 -0.000 -0.007  0.006  0.000  0.983
   spin  2
    eigenvalues: 
  0.199  0.199  0.209  0.333  0.333
    eigenvectors:
  0.000  0.000  1.000  0.000  0.000
  0.001  0.603  0.000  0.001  0.395
  0.603  0.001  0.000  0.395  0.001
  0.158  0.239  0.000  0.183  0.421
  0.239  0.158  0.000  0.421  0.183
    occupations:
  0.209 -0.000 -0.000 -0.000 -0.000
 -0.000  0.252 -0.000  0.052  0.039
 -0.000 -0.000  0.252  0.039 -0.052
 -0.000  0.052  0.039  0.280  0.000
 -0.000  0.039 -0.052  0.000  0.280
atomic mag. moment =   3.64566
atom    5   Tr[ns(na)] (up, down, total) =   4.96149  1.15101  6.11250
   spin  1
    eigenvalues: 
  0.990  0.990  0.993  0.994  0.994
    eigenvectors:
  0.000  0.000  1.000  0.000  0.000
  0.341  0.007  0.000  0.434  0.219
  0.007  0.341  0.000  0.219  0.434
  0.136  0.516  0.000  0.000  0.348
  0.516  0.136  0.000  0.348  0.000
    occupations:
  0.993 -0.000 -0.000 -0.000 -0.000
 -0.000  0.993 -0.000  0.001 -0.002
 -0.000 -0.000  0.993 -0.002 -0.001
 -0.000  0.001 -0.002  0.991  0.000
 -0.000 -0.002 -0.001  0.000  0.991
   spin  2
    eigenvalues: 
  0.167  0.174  0.174  0.317  0.317
    eigenvectors:
  1.000  0.000  0.000  0.000  0.000
  0.000  0.366  0.020  0.589  0.025
  0.000  0.020  0.366  0.025  0.589
  0.000  0.060  0.554  0.044  0.342
  0.000  0.554  0.060  0.342  0.044
    occupations:
  0.167 -0.000 -0.000 -0.000 -0.000
 -0.000  0.262 -0.000 -0.036  0.059
 -0.000 -0.000  0.262  0.059  0.036
 -0.000 -0.036  0.059  0.230  0.000
 -0.000  0.059  0.036  0.000  0.230
atomic mag. moment =   3.81048
atom    6   Tr[ns(na)] (up, down, total) =   4.91332  1.25773  6.17104
   spin  1
    eigenvalues: 
  0.969  0.969  0.991  0.992  0.992
    eigenvectors:
  0.000  0.000  1.000  0.000  0.000
  0.009  0.642  0.000  0.071  0.277
  0.642  0.009  0.000  0.277  0.071
  0.180  0.169  0.000  0.124  0.527
  0.169  0.180  0.000  0.527  0.124
    occupations:
  0.991 -0.000 -0.000 -0.000 -0.000
 -0.000  0.977 -0.000 -0.007 -0.009
 -0.000 -0.000  0.977 -0.009  0.007
 -0.000 -0.007 -0.009  0.984  0.000
 -0.000 -0.009  0.007  0.000  0.984
   spin  2
    eigenvalues: 
  0.180  0.194  0.194  0.345  0.345
    eigenvectors:
  1.000  0.000  0.000  0.000  0.000
  0.000  0.004  0.259  0.005  0.732
  0.000  0.259  0.004  0.732  0.005
  0.000  0.172  0.565  0.113  0.150
  0.000  0.565  0.172  0.150  0.113
    occupations:
  0.180 -0.000 -0.000 -0.000 -0.000
 -0.000  0.305 -0.000  0.054  0.039
 -0.000 -0.000  0.305  0.039 -0.054
 -0.000  0.054  0.039  0.234  0.000
 -0.000  0.039 -0.054  0.000  0.234
atomic mag. moment =   3.65559
N of occupied +U levels =   36.947243
 --- exit write_ns ---

     negative rho (up, down):  1.235E-01 1.235E-01
 --- in v_hubbard ---
Hubbard energy   -0.0543
 -------

     total cpu time spent up to now is     1371.8 secs

     total energy              =   -3195.09198017 Ry
     estimated scf accuracy    <       0.00001260 Ry

     total magnetization       =    -0.00 Bohr mag/cell
     absolute magnetization    =    27.29 Bohr mag/cell

     iteration #  7     ecut=    35.00 Ry     beta= 0.40
     CG style diagonalization
     ethr =  2.17E-09,  avg # of iterations =  3.0
 --- enter write_ns ---
 LDA+U parameters:
alpha( 3) = -0.02000000
alpha( 4) = -0.02000000
atom    1   Tr[ns(na)] (up, down, total) =   1.15041  4.96152  6.11193
   spin  1
    eigenvalues: 
  0.167  0.174  0.174  0.317  0.317
    eigenvectors:
  1.000  0.000  0.000  0.000  0.000
  0.000  0.081  0.305  0.026  0.588
  0.000  0.305  0.081  0.588  0.026
  0.000  0.166  0.448  0.205  0.181
  0.000  0.448  0.166  0.181  0.205
    occupations:
  0.167 -0.000 -0.000 -0.000 -0.000
 -0.000  0.262 -0.000  0.036  0.059
 -0.000 -0.000  0.262  0.059 -0.036
 -0.000  0.036  0.059  0.230  0.000
 -0.000  0.059 -0.036  0.000  0.230
   spin  2
    eigenvalues: 
  0.990  0.990  0.993  0.994  0.994
    eigenvectors:
  0.000  0.000  1.000  0.000  0.000
  0.038  0.310  0.000  0.044  0.608
  0.310  0.038  0.000  0.608  0.044
  0.222  0.430  0.000  0.143  0.205
  0.430  0.222  0.000  0.205  0.143
    occupations:
  0.993 -0.000 -0.000 -0.000 -0.000
 -0.000  0.993 -0.000 -0.001 -0.002
 -0.000 -0.000  0.993 -0.002  0.001
 -0.000 -0.001 -0.002  0.991  0.000
 -0.000 -0.002  0.001  0.000  0.991
atomic mag. moment =  -3.81112
atom    2   Tr[ns(na)] (up, down, total) =   1.25645  4.91301  6.16945
   spin  1
    eigenvalues: 
  0.180  0.194  0.194  0.344  0.344
    eigenvectors:
  1.000  0.000  0.000  0.000  0.000
  0.000  0.190  0.074  0.236  0.500
  0.000  0.074  0.190  0.500  0.236
  0.000  0.104  0.633  0.000  0.263
  0.000  0.633  0.104  0.263  0.000
    occupations:
  0.180 -0.000 -0.000 -0.000 -0.000
 -0.000  0.305 -0.000 -0.054  0.039
 -0.000 -0.000  0.305  0.039  0.054
 -0.000 -0.054  0.039  0.234  0.000
 -0.000  0.039  0.054  0.000  0.234
   spin  2
    eigenvalues: 
  0.969  0.969  0.991  0.992  0.992
    eigenvectors:
  0.000  0.000  1.000  0.000  0.000
  0.480  0.171  0.000  0.299  0.050
  0.171  0.480  0.000  0.050  0.299
  0.004  0.344  0.000  0.044  0.608
  0.344  0.004  0.000  0.608  0.044
    occupations:
  0.991 -0.000 -0.000 -0.000 -0.000
 -0.000  0.977 -0.000  0.007 -0.009
 -0.000 -0.000  0.977 -0.009 -0.007
 -0.000  0.007 -0.009  0.984  0.000
 -0.000 -0.009 -0.007  0.000  0.984
atomic mag. moment =  -3.65656
atom    3   Tr[ns(na)] (up, down, total) =   1.27410  4.91825  6.19234
   spin  1
    eigenvalues: 
  0.199  0.199  0.210  0.333  0.333
    eigenvectors:
  0.000  0.000  1.000  0.000  0.000
  0.361  0.244  0.000  0.291  0.104
  0.244  0.361  0.000  0.104  0.291
  0.023  0.372  0.000  0.089  0.516
  0.372  0.023  0.000  0.516  0.089
    occupations:
  0.210 -0.000 -0.000 -0.000 -0.000
 -0.000  0.252 -0.000 -0.052  0.039
 -0.000 -0.000  0.252  0.039  0.052
 -0.000 -0.052  0.039  0.280  0.000
 -0.000  0.039  0.052  0.000  0.280
   spin  2
    eigenvalues: 
  0.973  0.973  0.990  0.991  0.991
    eigenvectors:
  0.000  0.000  1.000  0.000  0.000
  0.457  0.090  0.000  0.340  0.114
  0.090  0.457  0.000  0.114  0.340
  0.043  0.411  0.000  0.023  0.524
  0.411  0.043  0.000  0.524  0.023
    occupations:
  0.990 -0.000 -0.000 -0.000 -0.000
 -0.000  0.981 -0.000  0.006 -0.007
 -0.000 -0.000  0.981 -0.007 -0.006
 -0.000  0.006 -0.007  0.983  0.000
 -0.000 -0.007 -0.006  0.000  0.983
atomic mag. moment =  -3.64415
atom    4   Tr[ns(na)] (up, down, total) =   4.91817  1.27351  6.19168
   spin  1
    eigenvalues: 
  0.973  0.973  0.990  0.991  0.991
    eigenvectors:
  0.000  0.000  1.000  0.000  0.000
  0.010  0.537  0.000  0.050  0.403
  0.537  0.010  0.000  0.403  0.050
  0.190  0.264  0.000  0.126  0.421
  0.264  0.190  0.000  0.421  0.126
    occupations:
  0.990 -0.000 -0.000 -0.000 -0.000
 -0.000  0.981 -0.000 -0.006 -0.007
 -0.000 -0.000  0.981 -0.007  0.006
 -0.000 -0.006 -0.007  0.983  0.000
 -0.000 -0.007  0.006  0.000  0.983
   spin  2
    eigenvalues: 
  0.199  0.199  0.209  0.333  0.333
    eigenvectors:
  0.000  0.000  1.000  0.000  0.000
  0.001  0.603  0.000  0.001  0.394
  0.603  0.001  0.000  0.394  0.001
  0.157  0.239  0.000  0.182  0.422
  0.239  0.157  0.000  0.422  0.182
    occupations:
  0.209 -0.000 -0.000 -0.000 -0.000
 -0.000  0.252 -0.000  0.053  0.039
 -0.000 -0.000  0.252  0.039 -0.053
 -0.000  0.053  0.039  0.280  0.000
 -0.000  0.039 -0.053  0.000  0.280
atomic mag. moment =   3.64466
atom    5   Tr[ns(na)] (up, down, total) =   4.96149  1.15095  6.11244
   spin  1
    eigenvalues: 
  0.990  0.990  0.993  0.994  0.994
    eigenvectors:
  0.000  0.000  1.000  0.000  0.000
  0.342  0.007  0.000  0.434  0.217
  0.007  0.342  0.000  0.217  0.434
  0.136  0.515  0.000  0.000  0.349
  0.515  0.136  0.000  0.349  0.000
    occupations:
  0.993 -0.000 -0.000 -0.000 -0.000
 -0.000  0.993 -0.000  0.001 -0.002
 -0.000 -0.000  0.993 -0.002 -0.001
 -0.000  0.001 -0.002  0.991  0.000
 -0.000 -0.002 -0.001  0.000  0.991
   spin  2
    eigenvalues: 
  0.168  0.174  0.174  0.317  0.317
    eigenvectors:
  1.000  0.000  0.000  0.000  0.000
  0.000  0.366  0.020  0.589  0.024
  0.000  0.020  0.366  0.024  0.589
  0.000  0.060  0.554  0.045  0.342
  0.000  0.554  0.060  0.342  0.045
    occupations:
  0.168 -0.000 -0.000 -0.000 -0.000
 -0.000  0.262 -0.000 -0.036  0.059
 -0.000 -0.000  0.262  0.059  0.036
 -0.000 -0.036  0.059  0.230  0.000
 -0.000  0.059  0.036  0.000  0.230
atomic mag. moment =   3.81054
atom    6   Tr[ns(na)] (up, down, total) =   4.91285  1.25592  6.16877
   spin  1
    eigenvalues: 
  0.969  0.969  0.991  0.992  0.992
    eigenvectors:
  0.000  0.000  1.000  0.000  0.000
  0.009  0.642  0.000  0.071  0.277
  0.642  0.009  0.000  0.277  0.071
  0.180  0.169  0.000  0.124  0.527
  0.169  0.180  0.000  0.527  0.124
    occupations:
  0.991 -0.000 -0.000 -0.000 -0.000
 -0.000  0.977 -0.000 -0.007 -0.009
 -0.000 -0.000  0.977 -0.009  0.007
 -0.000 -0.007 -0.009  0.984  0.000
 -0.000 -0.009  0.007  0.000  0.984
   spin  2
    eigenvalues: 
  0.180  0.194  0.194  0.344  0.344
    eigenvectors:
  1.000  0.000  0.000  0.000  0.000
  0.000  0.004  0.259  0.005  0.731
  0.000  0.259  0.004  0.731  0.005
  0.000  0.172  0.564  0.113  0.150
  0.000  0.564  0.172  0.150  0.113
    occupations:
  0.180 -0.000 -0.000 -0.000 -0.000
 -0.000  0.305 -0.000  0.054  0.039
 -0.000 -0.000  0.305  0.039 -0.054
 -0.000  0.054  0.039  0.233  0.000
 -0.000  0.039 -0.054  0.000  0.233
atomic mag. moment =   3.65692
N of occupied +U levels =   36.946617
 --- exit write_ns ---

     negative rho (up, down):  1.235E-01 1.235E-01
 --- in v_hubbard ---
Hubbard energy   -0.0543
 -------

     total cpu time spent up to now is     1482.3 secs

     total energy              =   -3195.09198119 Ry
     estimated scf accuracy    <       0.00000235 Ry

     total magnetization       =    -0.00 Bohr mag/cell
     absolute magnetization    =    27.29 Bohr mag/cell

     iteration #  8     ecut=    35.00 Ry     beta= 0.40
     CG style diagonalization
     ethr =  7.99E-10,  avg # of iterations =  3.0
 --- enter write_ns ---
 LDA+U parameters:
alpha( 3) = -0.02000000
alpha( 4) = -0.02000000
atom    1   Tr[ns(na)] (up, down, total) =   1.15095  4.96153  6.11248
   spin  1
    eigenvalues: 
  0.167  0.174  0.174  0.317  0.317
    eigenvectors:
  1.000  0.000  0.000  0.000  0.000
  0.000  0.081  0.305  0.026  0.588
  0.000  0.305  0.081  0.588  0.026
  0.000  0.166  0.448  0.205  0.181
  0.000  0.448  0.166  0.181  0.205
    occupations:
  0.167 -0.000 -0.000 -0.000 -0.000
 -0.000  0.262 -0.000  0.036  0.059
 -0.000 -0.000  0.262  0.059 -0.036
 -0.000  0.036  0.059  0.230  0.000
 -0.000  0.059 -0.036  0.000  0.230
   spin  2
    eigenvalues: 
  0.990  0.990  0.993  0.994  0.994
    eigenvectors:
  0.000  0.000  1.000  0.000  0.000
  0.037  0.310  0.000  0.043  0.609
  0.310  0.037  0.000  0.609  0.043
  0.222  0.430  0.000  0.143  0.204
  0.430  0.222  0.000  0.204  0.143
    occupations:
  0.993 -0.000 -0.000 -0.000 -0.000
 -0.000  0.993 -0.000 -0.001 -0.002
 -0.000 -0.000  0.993 -0.002  0.001
 -0.000 -0.001 -0.002  0.991  0.000
 -0.000 -0.002  0.001  0.000  0.991
atomic mag. moment =  -3.81058
atom    2   Tr[ns(na)] (up, down, total) =   1.25636  4.91301  6.16937
   spin  1
    eigenvalues: 
  0.180  0.194  0.194  0.344  0.344
    eigenvectors:
  1.000  0.000  0.000  0.000  0.000
  0.000  0.190  0.074  0.236  0.501
  0.000  0.074  0.190  0.501  0.236
  0.000  0.104  0.633  0.000  0.263
  0.000  0.633  0.104  0.263  0.000
    occupations:
  0.180 -0.000 -0.000 -0.000 -0.000
 -0.000  0.305 -0.000 -0.054  0.039
 -0.000 -0.000  0.305  0.039  0.054
 -0.000 -0.054  0.039  0.234  0.000
 -0.000  0.039  0.054  0.000  0.234
   spin  2
    eigenvalues: 
  0.969  0.969  0.991  0.992  0.992
    eigenvectors:
  0.000  0.000  1.000  0.000  0.000
  0.479  0.172  0.000  0.299  0.050
  0.172  0.479  0.000  0.050  0.299
  0.004  0.344  0.000  0.044  0.608
  0.344  0.004  0.000  0.608  0.044
    occupations:
  0.991 -0.000 -0.000 -0.000 -0.000
 -0.000  0.977 -0.000  0.007 -0.009
 -0.000 -0.000  0.977 -0.009 -0.007
 -0.000  0.007 -0.009  0.984  0.000
 -0.000 -0.009 -0.007  0.000  0.984
atomic mag. moment =  -3.65665
atom    3   Tr[ns(na)] (up, down, total) =   1.27342  4.91809  6.19151
   spin  1
    eigenvalues: 
  0.199  0.199  0.209  0.333  0.333
    eigenvectors:
  0.000  0.000  1.000  0.000  0.000
  0.360  0.244  0.000  0.291  0.104
  0.244  0.360  0.000  0.104  0.291
  0.023  0.372  0.000  0.089  0.516
  0.372  0.023  0.000  0.516  0.089
    occupations:
  0.209 -0.000 -0.000 -0.000 -0.000
 -0.000  0.252 -0.000 -0.052  0.039
 -0.000 -0.000  0.252  0.039  0.052
 -0.000 -0.052  0.039  0.280  0.000
 -0.000  0.039  0.052  0.000  0.280
   spin  2
    eigenvalues: 
  0.973  0.973  0.990  0.991  0.991
    eigenvectors:
  0.000  0.000  1.000  0.000  0.000
  0.457  0.089  0.000  0.340  0.114
  0.089  0.457  0.000  0.114  0.340
  0.043  0.410  0.000  0.023  0.524
  0.410  0.043  0.000  0.524  0.023
    occupations:
  0.990 -0.000 -0.000 -0.000 -0.000
 -0.000  0.981 -0.000  0.006 -0.007
 -0.000 -0.000  0.981 -0.007 -0.006
 -0.000  0.006 -0.007  0.983  0.000
 -0.000 -0.007 -0.006  0.000  0.983
atomic mag. moment =  -3.64467
atom    4   Tr[ns(na)] (up, down, total) =   4.91812  1.27324  6.19136
   spin  1
    eigenvalues: 
  0.973  0.973  0.990  0.991  0.991
    eigenvectors:
  0.000  0.000  1.000  0.000  0.000
  0.010  0.536  0.000  0.050  0.403
  0.536  0.010  0.000  0.403  0.050
  0.190  0.264  0.000  0.126  0.421
  0.264  0.190  0.000  0.421  0.126
    occupations:
  0.990 -0.000 -0.000 -0.000 -0.000
 -0.000  0.981 -0.000 -0.006 -0.007
 -0.000 -0.000  0.981 -0.007  0.006
 -0.000 -0.006 -0.007  0.983  0.000
 -0.000 -0.007  0.006  0.000  0.983
   spin  2
    eigenvalues: 
  0.199  0.199  0.209  0.333  0.333
    eigenvectors:
  0.000  0.000  1.000  0.000  0.000
  0.001  0.603  0.000  0.001  0.394
  0.603  0.001  0.000  0.394  0.001
  0.157  0.239  0.000  0.182  0.422
  0.239  0.157  0.000  0.422  0.182
    occupations:
  0.209 -0.000 -0.000 -0.000 -0.000
 -0.000  0.252 -0.000  0.053  0.039
 -0.000 -0.000  0.252  0.039 -0.053
 -0.000  0.053  0.039  0.280  0.000
 -0.000  0.039 -0.053  0.000  0.280
atomic mag. moment =   3.64487
atom    5   Tr[ns(na)] (up, down, total) =   4.96149  1.15051  6.11200
   spin  1
    eigenvalues: 
  0.990  0.990  0.993  0.994  0.994
    eigenvectors:
  0.000  0.000  1.000  0.000  0.000
  0.342  0.007  0.000  0.435  0.217
  0.007  0.342  0.000  0.217  0.435
  0.136  0.515  0.000  0.000  0.348
  0.515  0.136  0.000  0.348  0.000
    occupations:
  0.993 -0.000 -0.000 -0.000 -0.000
 -0.000  0.993 -0.000  0.001 -0.002
 -0.000 -0.000  0.993 -0.002 -0.001
 -0.000  0.001 -0.002  0.991  0.000
 -0.000 -0.002 -0.001  0.000  0.991
   spin  2
    eigenvalues: 
  0.167  0.174  0.174  0.317  0.317
    eigenvectors:
  1.000  0.000  0.000  0.000  0.000
  0.000  0.366  0.020  0.589  0.025
  0.000  0.020  0.366  0.025  0.589
  0.000  0.060  0.554  0.044  0.342
  0.000  0.554  0.060  0.342  0.044
    occupations:
  0.167 -0.000 -0.000 -0.000 -0.000
 -0.000  0.262 -0.000 -0.036  0.059
 -0.000 -0.000  0.262  0.059  0.036
 -0.000 -0.036  0.059  0.230  0.000
 -0.000  0.059  0.036  0.000  0.230
atomic mag. moment =   3.81098
atom    6   Tr[ns(na)] (up, down, total) =   4.91302  1.25669  6.16970
   spin  1
    eigenvalues: 
  0.969  0.969  0.991  0.992  0.992
    eigenvectors:
  0.000  0.000  1.000  0.000  0.000
  0.009  0.642  0.000  0.071  0.278
  0.642  0.009  0.000  0.278  0.071
  0.180  0.169  0.000  0.125  0.527
  0.169  0.180  0.000  0.527  0.125
    occupations:
  0.991 -0.000 -0.000 -0.000 -0.000
 -0.000  0.977 -0.000 -0.007 -0.009
 -0.000 -0.000  0.977 -0.009  0.007
 -0.000 -0.007 -0.009  0.984  0.000
 -0.000 -0.009  0.007  0.000  0.984
   spin  2
    eigenvalues: 
  0.180  0.194  0.194  0.344  0.344
    eigenvectors:
  1.000  0.000  0.000  0.000  0.000
  0.000  0.004  0.259  0.005  0.731
  0.000  0.259  0.004  0.731  0.005
  0.000  0.172  0.565  0.113  0.150
  0.000  0.565  0.172  0.150  0.113
    occupations:
  0.180 -0.000 -0.000 -0.000 -0.000
 -0.000  0.305 -0.000  0.054  0.039
 -0.000 -0.000  0.305  0.039 -0.054
 -0.000  0.054  0.039  0.234  0.000
 -0.000  0.039 -0.054  0.000  0.234
atomic mag. moment =   3.65633
N of occupied +U levels =   36.946415
 --- exit write_ns ---

     negative rho (up, down):  1.235E-01 1.235E-01
 --- in v_hubbard ---
Hubbard energy   -0.0543
 -------

     total cpu time spent up to now is     1590.6 secs

     total energy              =   -3195.09198143 Ry
     estimated scf accuracy    <       0.00000080 Ry

     total magnetization       =     0.00 Bohr mag/cell
     absolute magnetization    =    27.29 Bohr mag/cell

     iteration #  9     ecut=    35.00 Ry     beta= 0.40
     CG style diagonalization
     ethr =  2.73E-10,  avg # of iterations =  3.0
 --- enter write_ns ---
 LDA+U parameters:
alpha( 3) = -0.02000000
alpha( 4) = -0.02000000
atom    1   Tr[ns(na)] (up, down, total) =   1.15067  4.96151  6.11218
   spin  1
    eigenvalues: 
  0.167  0.174  0.174  0.317  0.317
    eigenvectors:
  1.000  0.000  0.000  0.000  0.000
  0.000  0.081  0.305  0.026  0.587
  0.000  0.305  0.081  0.587  0.026
  0.000  0.166  0.448  0.205  0.182
  0.000  0.448  0.166  0.182  0.205
    occupations:
  0.167 -0.000 -0.000 -0.000 -0.000
 -0.000  0.262 -0.000  0.036  0.059
 -0.000 -0.000  0.262  0.059 -0.036
 -0.000  0.036  0.059  0.230  0.000
 -0.000  0.059 -0.036  0.000  0.230
   spin  2
    eigenvalues: 
  0.990  0.990  0.993  0.994  0.994
    eigenvectors:
  0.000  0.000  1.000  0.000  0.000
  0.037  0.311  0.000  0.043  0.609
  0.311  0.037  0.000  0.609  0.043
  0.222  0.430  0.000  0.143  0.205
  0.430  0.222  0.000  0.205  0.143
    occupations:
  0.993 -0.000 -0.000 -0.000 -0.000
 -0.000  0.993 -0.000 -0.001 -0.002
 -0.000 -0.000  0.993 -0.002  0.001
 -0.000 -0.001 -0.002  0.991  0.000
 -0.000 -0.002  0.001  0.000  0.991
atomic mag. moment =  -3.81084
atom    2   Tr[ns(na)] (up, down, total) =   1.25657  4.91298  6.16955
   spin  1
    eigenvalues: 
  0.180  0.194  0.194  0.344  0.344
    eigenvectors:
  1.000  0.000  0.000  0.000  0.000
  0.000  0.190  0.074  0.236  0.501
  0.000  0.074  0.190  0.501  0.236
  0.000  0.104  0.633  0.000  0.263
  0.000  0.633  0.104  0.263  0.000
    occupations:
  0.180 -0.000 -0.000 -0.000 -0.000
 -0.000  0.305 -0.000 -0.054  0.039
 -0.000 -0.000  0.305  0.039  0.054
 -0.000 -0.054  0.039  0.234  0.000
 -0.000  0.039  0.054  0.000  0.234
   spin  2
    eigenvalues: 
  0.969  0.969  0.991  0.992  0.992
    eigenvectors:
  0.000  0.000  1.000  0.000  0.000
  0.480  0.171  0.000  0.299  0.050
  0.171  0.480  0.000  0.050  0.299
  0.004  0.344  0.000  0.044  0.608
  0.344  0.004  0.000  0.608  0.044
    occupations:
  0.991 -0.000 -0.000 -0.000 -0.000
 -0.000  0.977 -0.000  0.007 -0.009
 -0.000 -0.000  0.977 -0.009 -0.007
 -0.000  0.007 -0.009  0.984  0.000
 -0.000 -0.009 -0.007  0.000  0.984
atomic mag. moment =  -3.65641
atom    3   Tr[ns(na)] (up, down, total) =   1.27352  4.91808  6.19160
   spin  1
    eigenvalues: 
  0.199  0.199  0.209  0.333  0.333
    eigenvectors:
  0.000  0.000  1.000  0.000  0.000
  0.361  0.244  0.000  0.291  0.104
  0.244  0.361  0.000  0.104  0.291
  0.023  0.372  0.000  0.089  0.516
  0.372  0.023  0.000  0.516  0.089
    occupations:
  0.209 -0.000 -0.000 -0.000 -0.000
 -0.000  0.252 -0.000 -0.053  0.039
 -0.000 -0.000  0.252  0.039  0.053
 -0.000 -0.053  0.039  0.280  0.000
 -0.000  0.039  0.053  0.000  0.280
   spin  2
    eigenvalues: 
  0.973  0.973  0.990  0.991  0.991
    eigenvectors:
  0.000  0.000  1.000  0.000  0.000
  0.457  0.089  0.000  0.340  0.114
  0.089  0.457  0.000  0.114  0.340
  0.043  0.410  0.000  0.023  0.524
  0.410  0.043  0.000  0.524  0.023
    occupations:
  0.990 -0.000 -0.000 -0.000 -0.000
 -0.000  0.981 -0.000  0.006 -0.007
 -0.000 -0.000  0.981 -0.007 -0.006
 -0.000  0.006 -0.007  0.983  0.000
 -0.000 -0.007 -0.006  0.000  0.983
atomic mag. moment =  -3.64457
atom    4   Tr[ns(na)] (up, down, total) =   4.91811  1.27349  6.19159
   spin  1
    eigenvalues: 
  0.973  0.973  0.990  0.991  0.991
    eigenvectors:
  0.000  0.000  1.000  0.000  0.000
  0.010  0.537  0.000  0.050  0.403
  0.537  0.010  0.000  0.403  0.050
  0.190  0.264  0.000  0.126  0.421
  0.264  0.190  0.000  0.421  0.126
[...]
     atom:   29    charge:    5.2911    magn:    0.2045    constr:    0.0000
     atom:   30    charge:    5.2911    magn:    0.2045    constr:    0.0000

     total cpu time spent up to now is     1808.8 secs

     End of self-consistent calculation

 ------ SPIN UP ------------


          k = 0.0000 0.0000 0.0000 (  8497 PWs)   bands (ev):

   -78.4641 -78.1544 -78.0310 -73.4711 -73.3867 -73.2915 -44.4838 -44.4296
   -44.4296 -44.1488 -44.1488 -44.1390 -44.1343 -43.9724 -43.9724 -39.6226
   -39.5792 -39.5792 -39.5292 -39.5002 -39.5002 -39.4700 -39.3975 -39.3975
   -10.7244 -10.7244 -10.7011 -10.7011 -10.6863 -10.6736 -10.6571 -10.6571
   -10.6419 -10.6419 -10.6345 -10.6345 -10.6131 -10.6131 -10.5875 -10.5773
   -10.5663 -10.5663 -10.5573 -10.5573 -10.5407 -10.5407 -10.5351 -10.5282
   -10.5282 -10.5240 -10.5031 -10.5031 -10.4920 -10.4920  -7.3902  -7.0010
    -6.8660  -6.0515  -5.9704  -5.6036  -5.6034  -5.5039  -5.5038  -5.4376
    -5.4376  -5.4091  -5.3120  -5.3119  -5.1100  -5.1100  -4.9539  -4.9539
     1.5731   1.6894   1.7203   2.4111   2.5350   3.3126   5.4002   5.4002
     5.4822   5.9357   5.9357   6.0190   6.0614   6.0614   6.2408   6.2969
     6.2969   6.5089   6.5423   6.5423   6.5441   6.6963   6.6964   6.8603
     6.8604   6.9950   7.1236   7.2509   7.2509   7.6342   7.6342   7.6630
     7.8148   8.1694   8.1695   8.4023   8.5083   8.5083   8.6848   8.6848
     8.9110   9.0929   9.0929   9.1483   9.2531   9.2532   9.3232   9.4327
     9.4328   9.4417   9.5534   9.5534   9.7135   9.7136  10.0165  10.0166
    10.0625  10.0626  10.0835  10.1276  10.1277  10.4924  10.4924  10.6298
    10.8393  10.9747  11.0579  11.0579  11.1449  11.1722  11.2853  11.8940
    11.8941  12.6427  12.6428  12.9224  12.9224  13.1010  13.1824  13.1901
    13.1901  13.2213  13.3638  13.3638  14.2315  14.2315  14.9839  14.9839
    15.5062  15.6207  15.6207  15.7189  15.7792  15.9073  17.1277  17.1277
    17.1523  17.1523  17.2530  17.2530  17.5335  17.5979  17.6676  17.6676
    17.7253  17.7253  18.1404  18.1404  19.5813  20.5898  21.1333  21.2591
    21.5315  21.5315  22.0609  22.1990  22.5651  22.5652  22.6488  22.6489
    22.7680  22.7681  23.9849  23.9850  24.0524  24.0525  24.1630  24.3907

     occupation numbers 
     1.0000   1.0000   1.0000   1.0000   1.0000   1.0000   1.0000   1.0000
     1.0000   1.0000   1.0000   1.0000   1.0000   1.0000   1.0000   1.0000
     1.0000   1.0000   1.0000   1.0000   1.0000   1.0000   1.0000   1.0000
     1.0000   1.0000   1.0000   1.0000   1.0000   1.0000   1.0000   1.0000
     1.0000   1.0000   1.0000   1.0000   1.0000   1.0000   1.0000   1.0000
     1.0000   1.0000   1.0000   1.0000   1.0000   1.0000   1.0000   1.0000
     1.0000   1.0000   1.0000   1.0000   1.0000   1.0000   1.0000   1.0000
     1.0000   1.0000   1.0000   1.0000   1.0000   1.0000   1.0000   1.0000
     1.0000   1.0000   1.0000   1.0000   1.0000   1.0000   1.0000   1.0000
     1.0000   1.0000   1.0000   1.0000   1.0000   1.0000   1.0000   1.0000
     1.0000   1.0000   1.0000   1.0000   1.0000   1.0000   1.0000   1.0000
     1.0000   1.0000   1.0000   1.0000   1.0000   1.0000   1.0000   1.0000
     1.0000   1.0000   1.0000   1.0000   1.0000   1.0000   1.0000   1.0000
     1.0000   1.0000   1.0000   1.0000   1.0000   1.0000   1.0000   1.0000
     1.0000   1.0000   1.0000   1.0000   1.0000   1.0000   1.0000   1.0000
     1.0000   1.0000   1.0000   1.0000   1.0000   1.0000   1.0000   1.0000
     1.0000   1.0000   1.0000   1.0000   1.0000   1.0000   1.0000   1.0000
     1.0000   1.0000   1.0000   1.0000   1.0000   1.0000   1.0000   1.0000
     1.0000   1.0255   1.0255  -0.0297  -0.0297  -0.0021  -0.0001  -0.0001
    -0.0001  -0.0000  -0.0000  -0.0000  -0.0000  -0.0000  -0.0000  -0.0000
    -0.0000  -0.0000  -0.0000  -0.0000  -0.0000  -0.0000  -0.0000  -0.0000
    -0.0000  -0.0000  -0.0000  -0.0000  -0.0000  -0.0000  -0.0000  -0.0000
    -0.0000  -0.0000  -0.0000  -0.0000  -0.0000  -0.0000  -0.0000  -0.0000
    -0.0000  -0.0000  -0.0000  -0.0000  -0.0000  -0.0000  -0.0000  -0.0000
    -0.0000  -0.0000  -0.0000  -0.0000  -0.0000  -0.0000  -0.0000  -0.0000

          k = 0.0000-0.5774 0.0000 (  8560 PWs)   bands (ev):

   -78.4641 -78.1544 -78.0310 -73.4711 -73.3867 -73.2915 -44.4838 -44.4297
   -44.4297 -44.1489 -44.1488 -44.1389 -44.1343 -43.9725 -43.9724 -39.6225
   -39.5793 -39.5792 -39.5292 -39.5003 -39.5002 -39.4700 -39.3976 -39.3976
   -10.7209 -10.7016 -10.6893 -10.6842 -10.6788 -10.6721 -10.6551 -10.6400
   -10.6348 -10.6298 -10.6216 -10.6203 -10.6158 -10.6124 -10.5859 -10.5767
   -10.5711 -10.5664 -10.5596 -10.5586 -10.5559 -10.5486 -10.5441 -10.5324
   -10.5314 -10.5211 -10.5190 -10.5091 -10.5063 -10.4952  -6.6819  -6.6489
    -6.4859  -6.2827  -6.2347  -5.8943  -5.8100  -5.7508  -5.6342  -5.5670
    -5.5050  -5.4838  -5.4066  -5.3405  -5.2160  -5.1587  -5.0541  -4.9791
     1.5081   1.7628   1.8059   2.0599   2.1359   2.3092   5.5758   5.8537
     5.8742   6.0162   6.2019   6.2492   6.3260   6.3689   6.3916   6.5682
     6.6085   6.6719   6.7949   6.8413   7.0824   7.1095   7.1829   7.3005
     7.3462   7.4756   7.5612   7.6002   7.7413   7.8456   7.8652   7.9786
     8.0333   8.1798   8.2191   8.3365   8.3553   8.3703   8.4989   8.5640
     8.7229   8.7961   8.8830   8.9970   9.0370   9.1183   9.1522   9.2361
     9.2647   9.3651   9.4356   9.5300   9.6382   9.7375   9.8191   9.8435
     9.8667   9.9550   9.9856  10.0943  10.1674  10.2603  10.2991  10.5123
    10.7012  10.7736  10.9882  11.0715  11.1747  11.3570  11.5400  11.8448
    11.8742  11.9448  12.5667  12.8966  13.0240  13.0992  13.1802  13.2204
    13.3052  13.3481  13.5118  13.6297  14.2447  14.2902  14.4967  14.7778
    14.8282  15.2008  15.3906  15.6847  15.7525  15.8694  15.9512  16.0092
    16.1124  16.1582  16.2472  16.9774  17.1320  17.2569  17.3262  17.3972
    17.4761  17.5381  17.6219  17.6976  21.3645  21.5706  21.8602  22.2656
    22.4397  22.5431  22.9145  22.9740  23.0516  23.1940  23.3123  23.3434
    23.4253  23.4607  23.9390  23.9661  24.1516  24.1815  24.3204  24.4337

     occupation numbers 
     1.0000   1.0000   1.0000   1.0000   1.0000   1.0000   1.0000   1.0000
     1.0000   1.0000   1.0000   1.0000   1.0000   1.0000   1.0000   1.0000
     1.0000   1.0000   1.0000   1.0000   1.0000   1.0000   1.0000   1.0000
     1.0000   1.0000   1.0000   1.0000   1.0000   1.0000   1.0000   1.0000
     1.0000   1.0000   1.0000   1.0000   1.0000   1.0000   1.0000   1.0000
     1.0000   1.0000   1.0000   1.0000   1.0000   1.0000   1.0000   1.0000
     1.0000   1.0000   1.0000   1.0000   1.0000   1.0000   1.0000   1.0000
     1.0000   1.0000   1.0000   1.0000   1.0000   1.0000   1.0000   1.0000
     1.0000   1.0000   1.0000   1.0000   1.0000   1.0000   1.0000   1.0000
     1.0000   1.0000   1.0000   1.0000   1.0000   1.0000   1.0000   1.0000
     1.0000   1.0000   1.0000   1.0000   1.0000   1.0000   1.0000   1.0000
     1.0000   1.0000   1.0000   1.0000   1.0000   1.0000   1.0000   1.0000
     1.0000   1.0000   1.0000   1.0000   1.0000   1.0000   1.0000   1.0000
     1.0000   1.0000   1.0000   1.0000   1.0000   1.0000   1.0000   1.0000
     1.0000   1.0000   1.0000   1.0000   1.0000   1.0000   1.0000   1.0000
     1.0000   1.0000   1.0000   1.0000   1.0000   1.0000   1.0000   1.0000
     1.0000   1.0000   1.0000   1.0000   1.0000   1.0000   1.0000   1.0000
     1.0000   1.0000   1.0000   1.0000   1.0000   1.0000   1.0000   1.0000
     1.0000   1.0000   1.0248  -0.0043  -0.0145  -0.0022  -0.0001  -0.0000
    -0.0000  -0.0000  -0.0000  -0.0000  -0.0000  -0.0000  -0.0000  -0.0000
    -0.0000  -0.0000  -0.0000  -0.0000  -0.0000  -0.0000  -0.0000  -0.0000
    -0.0000  -0.0000  -0.0000  -0.0000  -0.0000  -0.0000  -0.0000  -0.0000
    -0.0000  -0.0000  -0.0000  -0.0000  -0.0000  -0.0000  -0.0000  -0.0000
    -0.0000  -0.0000  -0.0000  -0.0000  -0.0000  -0.0000  -0.0000  -0.0000
    -0.0000  -0.0000  -0.0000  -0.0000  -0.0000  -0.0000  -0.0000  -0.0000

 ------ SPIN DOWN ----------


          k = 0.0000 0.0000 0.0000 (  8497 PWs)   bands (ev):

   -78.4646 -78.1549 -78.0303 -73.4708 -73.3864 -73.2922 -44.4845 -44.4301
   -44.4301 -44.1493 -44.1493 -44.1382 -44.1348 -43.9716 -43.9716 -39.6222
   -39.5789 -39.5789 -39.5288 -39.4998 -39.4998 -39.4707 -39.3982 -39.3982
   -10.7243 -10.7243 -10.7013 -10.7012 -10.6860 -10.6740 -10.6570 -10.6570
   -10.6418 -10.6418 -10.6348 -10.6347 -10.6129 -10.6129 -10.5880 -10.5768
   -10.5664 -10.5664 -10.5572 -10.5572 -10.5410 -10.5410 -10.5356 -10.5279
   -10.5279 -10.5235 -10.5035 -10.5035 -10.4916 -10.4916  -7.3903  -7.0010
    -6.8659  -6.0514  -5.9705  -5.6033  -5.6031  -5.5041  -5.5040  -5.4378
    -5.4378  -5.4092  -5.3125  -5.3124  -5.1100  -5.1099  -4.9536  -4.9535
     1.5731   1.6893   1.7203   2.4111   2.5350   3.3127   5.4000   5.4000
     5.4820   5.9355   5.9356   6.0189   6.0613   6.0614   6.2408   6.2967
     6.2967   6.5087   6.5422   6.5422   6.5437   6.6958   6.6959   6.8608
     6.8609   6.9950   7.1237   7.2510   7.2511   7.6340   7.6340   7.6631
     7.8151   8.1695   8.1696   8.4022   8.5082   8.5083   8.6846   8.6846
     8.9110   9.0927   9.0927   9.1481   9.2531   9.2532   9.3232   9.4328
     9.4329   9.4416   9.5534   9.5535   9.7136   9.7137  10.0166  10.0166
    10.0627  10.0628  10.0837  10.1277  10.1277  10.4925  10.4925  10.6304
    10.8392  10.9746  11.0581  11.0582  11.1449  11.1721  11.2851  11.8944
    11.8945  12.6428  12.6428  12.9225  12.9225  13.1011  13.1824  13.1901
    13.1901  13.2212  13.3634  13.3635  14.2313  14.2314  14.9835  14.9835
    15.5062  15.6205  15.6205  15.7184  15.7795  15.9073  17.1277  17.1278
    17.1526  17.1527  17.2526  17.2526  17.5334  17.5979  17.6676  17.6676
    17.7252  17.7253  18.1403  18.1403  19.5819  20.5897  21.1338  21.2586
    21.5317  21.5317  22.0608  22.1987  22.5653  22.5653  22.6489  22.6489
    22.7679  22.7680  23.9848  23.9849  24.0525  24.0525  24.1629  24.3918

     occupation numbers 
     1.0000   1.0000   1.0000   1.0000   1.0000   1.0000   1.0000   1.0000
     1.0000   1.0000   1.0000   1.0000   1.0000   1.0000   1.0000   1.0000
     1.0000   1.0000   1.0000   1.0000   1.0000   1.0000   1.0000   1.0000
     1.0000   1.0000   1.0000   1.0000   1.0000   1.0000   1.0000   1.0000
     1.0000   1.0000   1.0000   1.0000   1.0000   1.0000   1.0000   1.0000
     1.0000   1.0000   1.0000   1.0000   1.0000   1.0000   1.0000   1.0000
     1.0000   1.0000   1.0000   1.0000   1.0000   1.0000   1.0000   1.0000
     1.0000   1.0000   1.0000   1.0000   1.0000   1.0000   1.0000   1.0000
     1.0000   1.0000   1.0000   1.0000   1.0000   1.0000   1.0000   1.0000
     1.0000   1.0000   1.0000   1.0000   1.0000   1.0000   1.0000   1.0000
     1.0000   1.0000   1.0000   1.0000   1.0000   1.0000   1.0000   1.0000
     1.0000   1.0000   1.0000   1.0000   1.0000   1.0000   1.0000   1.0000
     1.0000   1.0000   1.0000   1.0000   1.0000   1.0000   1.0000   1.0000
     1.0000   1.0000   1.0000   1.0000   1.0000   1.0000   1.0000   1.0000
     1.0000   1.0000   1.0000   1.0000   1.0000   1.0000   1.0000   1.0000
     1.0000   1.0000   1.0000   1.0000   1.0000   1.0000   1.0000   1.0000
     1.0000   1.0000   1.0000   1.0000   1.0000   1.0000   1.0000   1.0000
     1.0000   1.0000   1.0000   1.0000   1.0000   1.0000   1.0000   1.0000
     1.0000   1.0255   1.0254  -0.0297  -0.0297  -0.0021  -0.0001  -0.0001
    -0.0001  -0.0000  -0.0000  -0.0000  -0.0000  -0.0000  -0.0000  -0.0000
    -0.0000  -0.0000  -0.0000  -0.0000  -0.0000  -0.0000  -0.0000  -0.0000
    -0.0000  -0.0000  -0.0000  -0.0000  -0.0000  -0.0000  -0.0000  -0.0000
    -0.0000  -0.0000  -0.0000  -0.0000  -0.0000  -0.0000  -0.0000  -0.0000
    -0.0000  -0.0000  -0.0000  -0.0000  -0.0000  -0.0000  -0.0000  -0.0000
    -0.0000  -0.0000  -0.0000  -0.0000  -0.0000  -0.0000  -0.0000  -0.0000

          k = 0.0000-0.5774 0.0000 (  8560 PWs)   bands (ev):

   -78.4646 -78.1549 -78.0303 -73.4708 -73.3864 -73.2922 -44.4845 -44.4302
   -44.4301 -44.1494 -44.1493 -44.1381 -44.1347 -43.9717 -43.9716 -39.6221
   -39.5790 -39.5790 -39.5288 -39.4999 -39.4999 -39.4706 -39.3983 -39.3983
   -10.7208 -10.7017 -10.6889 -10.6839 -10.6791 -10.6724 -10.6551 -10.6398
   -10.6348 -10.6301 -10.6220 -10.6206 -10.6152 -10.6122 -10.5865 -10.5761
   -10.5713 -10.5665 -10.5597 -10.5583 -10.5563 -10.5482 -10.5443 -10.5325
   -10.5315 -10.5207 -10.5194 -10.5087 -10.5067 -10.4947  -6.6818  -6.6492
    -6.4860  -6.2827  -6.2346  -5.8942  -5.8099  -5.7508  -5.6343  -5.5670
    -5.5049  -5.4839  -5.4071  -5.3409  -5.2158  -5.1588  -5.0539  -4.9788
     1.5080   1.7628   1.8060   2.0600   2.1356   2.3094   5.5755   5.8532
     5.8743   6.0158   6.2017   6.2490   6.3262   6.3691   6.3916   6.5681
     6.6082   6.6721   6.7949   6.8409   7.0824   7.1096   7.1828   7.3004
     7.3465   7.4755   7.5612   7.6002   7.7412   7.8457   7.8654   7.9786
     8.0331   8.1798   8.2192   8.3364   8.3551   8.3705   8.4991   8.5643
     8.7228   8.7963   8.8827   8.9969   9.0371   9.1183   9.1521   9.2362
     9.2646   9.3651   9.4354   9.5300   9.6381   9.7374   9.8191   9.8434
     9.8668   9.9551   9.9856  10.0947  10.1674  10.2609  10.2993  10.5122
    10.7014  10.7739  10.9882  11.0715  11.1748  11.3571  11.5400  11.8451
    11.8743  11.9452  12.5667  12.8967  13.0239  13.0992  13.1802  13.2205
    13.3049  13.3479  13.5116  13.6292  14.2447  14.2900  14.4966  14.7775
    14.8279  15.2006  15.3905  15.6847  15.7527  15.8692  15.9511  16.0089
    16.1126  16.1580  16.2471  16.9773  17.1320  17.2569  17.3262  17.3972
    17.4761  17.5377  17.6217  17.6980  21.3654  21.5713  21.8606  22.2653
    22.4394  22.5425  22.9143  22.9740  23.0515  23.1944  23.3125  23.3432
    23.4251  23.4606  23.9391  23.9664  24.1519  24.1813  24.3205  24.4336

     occupation numbers 
     1.0000   1.0000   1.0000   1.0000   1.0000   1.0000   1.0000   1.0000
     1.0000   1.0000   1.0000   1.0000   1.0000   1.0000   1.0000   1.0000
     1.0000   1.0000   1.0000   1.0000   1.0000   1.0000   1.0000   1.0000
     1.0000   1.0000   1.0000   1.0000   1.0000   1.0000   1.0000   1.0000
     1.0000   1.0000   1.0000   1.0000   1.0000   1.0000   1.0000   1.0000
     1.0000   1.0000   1.0000   1.0000   1.0000   1.0000   1.0000   1.0000
     1.0000   1.0000   1.0000   1.0000   1.0000   1.0000   1.0000   1.0000
     1.0000   1.0000   1.0000   1.0000   1.0000   1.0000   1.0000   1.0000
     1.0000   1.0000   1.0000   1.0000   1.0000   1.0000   1.0000   1.0000
     1.0000   1.0000   1.0000   1.0000   1.0000   1.0000   1.0000   1.0000
     1.0000   1.0000   1.0000   1.0000   1.0000   1.0000   1.0000   1.0000
     1.0000   1.0000   1.0000   1.0000   1.0000   1.0000   1.0000   1.0000
     1.0000   1.0000   1.0000   1.0000   1.0000   1.0000   1.0000   1.0000
     1.0000   1.0000   1.0000   1.0000   1.0000   1.0000   1.0000   1.0000
     1.0000   1.0000   1.0000   1.0000   1.0000   1.0000   1.0000   1.0000
     1.0000   1.0000   1.0000   1.0000   1.0000   1.0000   1.0000   1.0000
     1.0000   1.0000   1.0000   1.0000   1.0000   1.0000   1.0000   1.0000
     1.0000   1.0000   1.0000   1.0000   1.0000   1.0000   1.0000   1.0000
     1.0000   1.0000   1.0248  -0.0044  -0.0145  -0.0022  -0.0001  -0.0000
    -0.0000  -0.0000  -0.0000  -0.0000  -0.0000  -0.0000  -0.0000  -0.0000
    -0.0000  -0.0000  -0.0000  -0.0000  -0.0000  -0.0000  -0.0000  -0.0000
    -0.0000  -0.0000  -0.0000  -0.0000  -0.0000  -0.0000  -0.0000  -0.0000
    -0.0000  -0.0000  -0.0000  -0.0000  -0.0000  -0.0000  -0.0000  -0.0000
    -0.0000  -0.0000  -0.0000  -0.0000  -0.0000  -0.0000  -0.0000  -0.0000
    -0.0000  -0.0000  -0.0000  -0.0000  -0.0000  -0.0000  -0.0000  -0.0000

     the Fermi energy is    12.7793 ev

!    total energy              =   -3195.09198150 Ry
     estimated scf accuracy    <       0.00000009 Ry
     smearing contrib. (-TS)   =       0.00287257 Ry
     internal energy E=F+TS    =   -3195.09485407 Ry

     The total energy is F=E-TS. E is the sum of the following terms:
     one-electron contribution =   -1267.34225079 Ry
     hartree contribution      =     826.43038139 Ry
     xc contribution           =    -695.64734678 Ry
     ewald contribution        =   -2058.48132819 Ry
     Hubbard energy            =      -0.05430970 Ry

     total magnetization       =     0.00 Bohr mag/cell
     absolute magnetization    =    27.29 Bohr mag/cell

     convergence has been achieved in  10 iterations

     Writing output data file /home/aldair1809/Documentos/QE/4BFO/hubbard_pbe_mp/lr_-0.02/bifeo3-Uhubbard.save/

     init_run     :     14.32s CPU     15.57s WALL (       1 calls)
     electrons    :   1759.18s CPU   1792.34s WALL (       1 calls)

     Called by init_run:
     wfcinit      :     11.59s CPU     12.43s WALL (       1 calls)
     potinit      :      0.15s CPU      0.23s WALL (       1 calls)
     hinit0       :      1.26s CPU      1.31s WALL (       1 calls)

     Called by electrons:
     c_bands      :   1661.56s CPU   1688.08s WALL (      10 calls)
     sum_band     :     87.14s CPU     91.33s WALL (      10 calls)
     v_of_rho     :      1.65s CPU      1.72s WALL (      11 calls)
     v_h          :      0.05s CPU      0.05s WALL (      11 calls)
     v_xc         :      1.60s CPU      1.66s WALL (      11 calls)
     newd         :      9.52s CPU     12.07s WALL (      11 calls)
     mix_rho      :      0.30s CPU      0.31s WALL (      10 calls)

     Called by c_bands:
     init_us_2    :      1.20s CPU      1.23s WALL (      84 calls)
     ccgdiagg     :   1391.42s CPU   1413.16s WALL (      44 calls)
     wfcrot       :    269.08s CPU    273.84s WALL (      40 calls)

     Called by sum_band:
     sum_band:wei :      0.03s CPU      0.03s WALL (      10 calls)
     sum_band:loo :     68.76s CPU     70.58s WALL (      10 calls)
     sum_band:buf :      0.18s CPU      0.19s WALL (      40 calls)
     sum_band:ini :      0.56s CPU      0.58s WALL (      40 calls)
     sum_band:cal :     51.35s CPU     51.84s WALL (      40 calls)
     sum_band:bec :      0.27s CPU      0.27s WALL (      40 calls)
     addusdens    :     13.92s CPU     16.24s WALL (      10 calls)
     addusd:skk   :      0.06s CPU      0.06s WALL (      40 calls)
     addusd:dgemm :      7.15s CPU      9.06s WALL (      80 calls)
     addusd:qvan2 :      6.55s CPU      6.58s WALL (      80 calls)

     Called by *cgdiagg:
     h_psi        :    736.01s CPU    752.48s WALL (   31685 calls)
     s_psi        :    508.97s CPU    513.20s WALL (   63334 calls)

     Called by h_psi:
     h_psi:calbec :    258.31s CPU    263.09s WALL (   31685 calls)
     vloc_psi     :    156.42s CPU    165.50s WALL (   31685 calls)
     add_vuspsi   :    278.98s CPU    280.81s WALL (   31685 calls)
     vhpsi        :     40.85s CPU     41.74s WALL (   31685 calls)
     hs_1psi      :    813.68s CPU    828.89s WALL (   31645 calls)
     s_1psi       :    431.43s CPU    435.85s WALL (   31645 calls)

     General routines
     calbec       :    546.92s CPU    555.67s WALL (   95099 calls)
     fft          :      0.76s CPU      0.82s WALL (     229 calls)
     ffts         :      0.09s CPU      0.09s WALL (      20 calls)
     fftw         :    147.26s CPU    156.83s WALL (   87290 calls)
     davcio       :      0.00s CPU      0.05s WALL (       4 calls)

     Parallel routines
     fft_scatt_xy :     25.39s CPU     27.50s WALL (   87539 calls)
     fft_scatt_yz :     26.53s CPU     30.16s WALL (   87539 calls)

     Hubbard U routines
     new_ns       :      3.60s CPU      3.62s WALL (      10 calls)
     new_ns       :      3.60s CPU      3.62s WALL (      10 calls)
     vhpsi        :     40.85s CPU     41.74s WALL (   31685 calls)

     PWSCF        :  29m34.56s CPU  30m 9.44s WALL


   This run was terminated on:  22:18:25  26Oct2024            

=------------------------------------------------------------------------------=
   JOB DONE.
=------------------------------------------------------------------------------=
