
     Program PWSCF v.6.7MaX starts on 26Oct2024 at 21:15:42 

     This program is part of the open-source Quantum ESPRESSO suite
     for quantum simulation of materials; please cite
         "P. Giannozzi et al., J. Phys.:Condens. Matter 21 395502 (2009);
         "P. Giannozzi et al., J. Phys.:Condens. Matter 29 465901 (2017);
          URL http://www.quantum-espresso.org", 
     in publications or presentations arising from this work. More details at
     http://www.quantum-espresso.org/quote

     Parallel version (MPI), running on     4 processors

     MPI processes distributed on     1 nodes
     R & G space division:  proc/nbgrp/npool/nimage =       4
     Waiting for input...
     Reading input from standard input

     Current dimensions of program PWSCF are:
     Max number of different atomic species (ntypx) = 10
     Max number of k-points (npk) =  40000
     Max angular momentum in pseudopotentials (lmaxx) =  3

     Subspace diagonalization in iterative solution of the eigenvalue problem:
     one sub-group per band group will be used
     scalapack distributed-memory algorithm (size of sub-group:  2*  2 procs)


     Parallelization info
     --------------------
     sticks:   dense  smooth     PW     G-vecs:    dense   smooth      PW
     Min         261     261     74                17069    17069    2544
     Max         262     262     76                17072    17072    2546
     Sum        1045    1045    301                68281    68281   10179



     bravais-lattice index     =            4
     lattice parameter (alat)  =      10.4531  a.u.
     unit-cell volume          =    2440.6662 (a.u.)^3
     number of atoms/cell      =           30
     number of atomic types    =            4
     number of electrons       =       294.00
     number of Kohn-Sham states=          200
     kinetic-energy cutoff     =      35.0000  Ry
     charge density cutoff     =     140.0000  Ry
     scf convergence threshold =      1.0E-07
     mixing beta               =       0.4000
     number of iterations used =            8  plain     mixing
     Exchange-correlation=  SLA  PW   PBX  PBC
                           (   1   4   3   4   0   0   0)

     celldm(1)=  10.453102  celldm(2)=   0.000000  celldm(3)=   2.467415
     celldm(4)=   0.000000  celldm(5)=   0.000000  celldm(6)=   0.000000

     crystal axes: (cart. coord. in units of alat)
               a(1) = (   1.000000   0.000000   0.000000 )  
               a(2) = (  -0.500000   0.866025   0.000000 )  
               a(3) = (   0.000000   0.000000   2.467415 )  

     reciprocal axes: (cart. coord. in units 2 pi/alat)
               b(1) = (  1.000000  0.577350 -0.000000 )  
               b(2) = (  0.000000  1.154701  0.000000 )  
               b(3) = (  0.000000 -0.000000  0.405282 )  


     PseudoPot. # 1 for O  read from file:
     /home/aldair1809/Programas/QE/q-e-qe-7.3/pseudo/o_pbe_v1.2.uspp.F.UPF
     MD5 check sum: 734c27235a0248c51dbae37a1fbe46ec
     Pseudo is Ultrasoft + core correction, Zval =  6.0
     Generated by new atomic code, or converted to UPF format
     Using radial grid of  737 points,  5 beta functions with: 
                l(1) =   0
                l(2) =   0
                l(3) =   1
                l(4) =   1
                l(5) =   2
     Q(r) pseudized with  8 coefficients,  rinner =    0.900   0.900   0.900
                                                       0.900   0.900

     PseudoPot. # 2 for Bi read from file:
     /home/aldair1809/Programas/QE/q-e-qe-7.3/pseudo/bi_pbe_v1.uspp.F.UPF
     MD5 check sum: cceb9f28ec65b6d7ff33140f5b0b1758
     Pseudo is Ultrasoft + core correction, Zval = 15.0
     Generated by new atomic code, or converted to UPF format
     Using radial grid of  899 points,  6 beta functions with: 
                l(1) =   0
                l(2) =   0
                l(3) =   1
                l(4) =   1
                l(5) =   2
                l(6) =   2
     Q(r) pseudized with  6 coefficients,  rinner =    1.000   1.000   1.000
                                                       1.000   1.000

     PseudoPot. # 3 for Fe read from file:
     /home/aldair1809/Programas/QE/q-e-qe-7.3/pseudo/fe_pbe_v1.5.uspp.F.UPF
     MD5 check sum: a130daea23fe5165f5d574ae7f82ed95
     Pseudo is Ultrasoft + core correction, Zval = 16.0
     Generated by new atomic code, or converted to UPF format
     Using radial grid of  861 points,  6 beta functions with: 
                l(1) =   0
                l(2) =   0
                l(3) =   1
                l(4) =   1
                l(5) =   2
                l(6) =   2
     Q(r) pseudized with  8 coefficients,  rinner =    1.000   1.000   1.000
                                                       1.000   1.000

     PseudoPot. # 4 for Fe read from file:
     /home/aldair1809/Programas/QE/q-e-qe-7.3/pseudo/fe_pbe_v1.5.uspp.F.UPF
     MD5 check sum: a130daea23fe5165f5d574ae7f82ed95
     Pseudo is Ultrasoft + core correction, Zval = 16.0
     Generated by new atomic code, or converted to UPF format
     Using radial grid of  861 points,  6 beta functions with: 
                l(1) =   0
                l(2) =   0
                l(3) =   1
                l(4) =   1
                l(5) =   2
                l(6) =   2
     Q(r) pseudized with  8 coefficients,  rinner =    1.000   1.000   1.000
                                                       1.000   1.000

     atomic species   valence    mass     pseudopotential
        O              6.00    15.99940     O ( 1.00)
        Bi            15.00   208.98040     Bi( 1.00)
        Fe1           16.00    55.84500     Fe( 1.00)
        Fe2           16.00    55.84500     Fe( 1.00)

     Starting magnetic structure 
     atomic species   magnetization
        O            0.000
        Bi           0.000
        Fe1         -0.800
        Fe2          0.800


     Simplified LDA+U calculation (l_max = 2) with parameters (eV):
     atomic species    L          U    alpha       J0     beta
        Fe1            2     0.0000  -0.0500   0.0000   0.0000
        Fe2            2     0.0000  -0.0500   0.0000   0.0000



      3 Sym. Ops. (no inversion) found


                                    s                        frac. trans.

      isym =  1     identity                                     

 cryst.   s( 1) = (     1          0          0      )
                  (     0          1          0      )
                  (     0          0          1      )

 cart.    s( 1) = (  1.0000000  0.0000000  0.0000000 )
                  (  0.0000000  1.0000000  0.0000000 )
                  (  0.0000000  0.0000000  1.0000000 )


      isym =  2     120 deg rotation - cryst. axis [0,0,1]       

 cryst.   s( 2) = (     0          1          0      )
                  (    -1         -1          0      )
                  (     0          0          1      )

 cart.    s( 2) = ( -0.5000000 -0.8660254  0.0000000 )
                  (  0.8660254 -0.5000000  0.0000000 )
                  (  0.0000000  0.0000000  1.0000000 )


      isym =  3     120 deg rotation - cryst. axis [0,0,-1]      

 cryst.   s( 3) = (    -1         -1          0      )
                  (     1          0          0      )
                  (     0          0          1      )

 cart.    s( 3) = ( -0.5000000  0.8660254  0.0000000 )
                  ( -0.8660254 -0.5000000  0.0000000 )
                  (  0.0000000  0.0000000  1.0000000 )


     point group C_3 (3)    
     there are  3 classes
     the character table:

       E     C3    C3^2 
A      1.00  1.00  1.00
E      1.00 -0.50 -0.50
E*     1.00 -0.50 -0.50
     imaginary part
A      0.00  0.00  0.00
E      0.00  0.87 -0.87
E*     0.00 -0.87  0.87

     the symmetry operations in each class and the name of the first element:

     E        1
          identity                                               
     C3       2
          120 deg rotation - cryst. axis [0,0,1]                 
     C3^2     3
          120 deg rotation - cryst. axis [0,0,-1]                

   Cartesian axes

     site n.     atom                  positions (alat units)
         1           Fe1 tau(   1) = (   0.0000000   0.0000000   1.9173194  )
         2           Fe1 tau(   2) = (  -0.0000005   0.5773506   2.3408318  )
         3           Fe1 tau(   3) = (   0.5000005   0.2886748   1.4987656  )
         4           Fe2 tau(   4) = (   0.5000005   0.2886748   0.2650306  )
         5           Fe2 tau(   5) = (   0.0000000   0.0000000   0.6836385  )
         6           Fe2 tau(   6) = (  -0.0000005   0.5773506   1.1071829  )
         7           Bi  tau(   7) = (   0.5000005   0.2886748   2.0704508  )
         8           Bi  tau(   8) = (  -0.0000005   0.5773506   1.6683657  )
         9           Bi  tau(   9) = (  -0.0000005   0.5773506   0.4345959  )
        10           Bi  tau(  10) = (   0.0000000   0.0000000   0.0112133  )
        11           Bi  tau(  11) = (   0.0000000   0.0000000   1.2449306  )
        12           Bi  tau(  12) = (   0.5000005   0.2886748   0.8366940  )
        13           O   tau(  13) = (  -0.3015234   0.6617768   2.1713309  )
        14           O   tau(  14) = (   0.0776467   0.2740092   2.1713309  )
        15           O   tau(  15) = (   0.2238783   0.7962639   2.1713309  )
        16           O   tau(  16) = (   0.4195843   0.5622547   1.7587968  )
        17           O   tau(  17) = (   0.3032805   0.0822442   1.7587968  )
        18           O   tau(  18) = (   0.7771337   0.2215274   1.7587968  )
        19           O   tau(  19) = (   0.6967279   0.0822438   0.5250654  )
        20           O   tau(  20) = (   0.5804103   0.5622631   0.5250654  )
        21           O   tau(  21) = (   0.2228602   0.2215194   0.5250654  )
        22           O   tau(  22) = (  -0.0757596   0.8510068   0.1130324  )
        23           O   tau(  23) = (  -0.1991137   0.3749123   0.1130324  )
        24           O   tau(  24) = (   0.2748733   0.5061317   0.1130324  )
        25           O   tau(  25) = (   0.1991050   0.3749017   1.3467955  )
        26           O   tau(  26) = (   0.0757731   0.8510045   1.3467955  )
        27           O   tau(  27) = (  -0.2748781   0.5061446   1.3467955  )
        28           O   tau(  28) = (  -0.0776631   0.2740052   0.9376559  )
        29           O   tau(  29) = (   0.3015366   0.6617637   0.9376559  )
        30           O   tau(  30) = (  -0.2238720   0.7962811   0.9376559  )

   Crystallographic axes

     site n.     atom                  positions (cryst. coord.)
         1           Fe1 tau(   1) = (  0.0000000  0.0000000  0.7770559  )
         2           Fe1 tau(   2) = (  0.3333330  0.6666670  0.9486980  )
         3           Fe1 tau(   3) = (  0.6666670  0.3333330  0.6074234  )
         4           Fe2 tau(   4) = (  0.6666670  0.3333330  0.1074122  )
         5           Fe2 tau(   5) = (  0.0000000  0.0000000  0.2770667  )
         6           Fe2 tau(   6) = (  0.3333330  0.6666670  0.4487218  )
         7           Bi  tau(   7) = (  0.6666670  0.3333330  0.8391174  )
         8           Bi  tau(   8) = (  0.3333330  0.6666670  0.6761593  )
         9           Bi  tau(   9) = (  0.3333330  0.6666670  0.1761341  )
        10           Bi  tau(  10) = (  0.0000000  0.0000000  0.0045446  )
        11           Bi  tau(  11) = (  0.0000000  0.0000000  0.5045485  )
        12           Bi  tau(  12) = (  0.6666670  0.3333330  0.3390974  )
        13           O   tau(  13) = (  0.0805536  0.7641541  0.8800023  )
        14           O   tau(  14) = (  0.2358459  0.3163985  0.8800023  )
        15           O   tau(  15) = (  0.6836015  0.9194464  0.8800023  )
        16           O   tau(  16) = (  0.7442022  0.6492358  0.7128095  )
        17           O   tau(  17) = (  0.3507642  0.0949674  0.7128095  )
        18           O   tau(  18) = (  0.9050326  0.2557978  0.7128095  )
        19           O   tau(  19) = (  0.7442114  0.0949669  0.2127998  )
        20           O   tau(  20) = (  0.9050331  0.6492455  0.2127998  )
        21           O   tau(  21) = (  0.3507545  0.2557886  0.2127998  )
        22           O   tau(  22) = (  0.4155694  0.9826580  0.0458101  )
        23           O   tau(  23) = (  0.0173420  0.4329115  0.0458101  )
        24           O   tau(  24) = (  0.5670885  0.5844306  0.0458101  )
        25           O   tau(  25) = (  0.4155546  0.4328992  0.5458326  )
        26           O   tau(  26) = (  0.5671008  0.9826554  0.5458326  )
        27           O   tau(  27) = (  0.0173446  0.5844454  0.5458326  )
        28           O   tau(  28) = (  0.0805338  0.3163939  0.3800155  )
        29           O   tau(  29) = (  0.6836061  0.7641389  0.3800155  )
        30           O   tau(  30) = (  0.2358611  0.9194662  0.3800155  )

     number of k points=     2  Methfessel-Paxton smearing, width (Ry)=  0.0100
                       cart. coord. in units 2pi/alat
        k(    1) = (   0.0000000   0.0000000   0.0000000), wk =   0.2500000
        k(    2) = (   0.0000000  -0.5773503   0.0000000), wk =   0.7500000

                       cryst. coord.
        k(    1) = (   0.0000000   0.0000000   0.0000000), wk =   0.2500000
        k(    2) = (   0.0000000  -0.5000000   0.0000000), wk =   0.7500000

     Dense  grid:    68281 G-vectors     FFT dimensions: (  40,  40, 100)

     Dynamical RAM for                 wfc:       6.51 MB

     Dynamical RAM for     wfc (w. buffer):      32.55 MB

     Dynamical RAM for             U proj.:       0.98 MB

     Dynamical RAM for  U proj. (w. buff.):       4.88 MB

     Dynamical RAM for           str. fact:       1.04 MB

     Dynamical RAM for           local pot:       0.00 MB

     Dynamical RAM for          nlocal pot:      14.65 MB

     Dynamical RAM for                qrad:       3.80 MB

     Dynamical RAM for          rho,v,vnew:       3.39 MB

     Dynamical RAM for               rhoin:       1.13 MB

     Dynamical RAM for            rho*nmix:       8.34 MB

     Dynamical RAM for           G-vectors:       1.11 MB

     Dynamical RAM for          h,s,v(r/c):       0.46 MB

     Dynamical RAM for          <psi|beta>:       1.37 MB

     Dynamical RAM for      wfcinit/wfcrot:      13.94 MB

     Dynamical RAM for           addusdens:      53.40 MB

     Estimated static dynamical RAM per process >      74.02 MB

     Estimated max dynamical RAM per process >     127.42 MB

     Estimated total dynamical RAM >     509.70 MB

     Atomic positions and unit cell read from directory:
     /home/aldair1809/Documentos/QE/4BFO/hubbard_pbe_mp/lr_-0.05/bifeo3-Uhubbard.save/


     Check: negative core charge=   -0.000081
     Generating pointlists ...
     new r_m :   0.1435 (alat units)  1.5003 (a.u.) for type    1
     new r_m :   0.1728 (alat units)  1.8065 (a.u.) for type    2
     new r_m :   0.1435 (alat units)  1.5003 (a.u.) for type    3
     new r_m :   0.1435 (alat units)  1.5003 (a.u.) for type    4

     The initial density is read from file :
     /home/aldair1809/Documentos/QE/4BFO/hubbard_pbe_mp/lr_-0.05/bifeo3-Uhubbard.save/charge-density


     negative rho (up, down):  1.235E-01 1.235E-01
 --- in v_hubbard ---
Hubbard energy   -0.1357
 -------
     Number of +U iterations with fixed ns =  0
     Starting occupations:
 --- enter write_ns ---
 LDA+U parameters:
alpha( 3) = -0.05000000
alpha( 4) = -0.05000000
atom    1   Tr[ns(na)] (up, down, total) =   1.14843  4.96207  6.11051
   spin  1
    eigenvalues: 
  0.167  0.174  0.174  0.317  0.317
    eigenvectors:
  1.000  0.000  0.000  0.000  0.000
  0.000  0.081  0.306  0.026  0.587
  0.000  0.306  0.081  0.587  0.026
  0.000  0.165  0.448  0.205  0.182
  0.000  0.448  0.165  0.182  0.205
    occupations:
  0.167 -0.000 -0.000 -0.000 -0.000
 -0.000  0.261 -0.000  0.036  0.059
 -0.000 -0.000  0.261  0.059 -0.036
 -0.000  0.036  0.059  0.229  0.000
 -0.000  0.059 -0.036  0.000  0.229
   spin  2
    eigenvalues: 
  0.990  0.990  0.993  0.994  0.994
    eigenvectors:
  0.000  0.000  1.000  0.000  0.000
  0.040  0.302  0.000  0.045  0.613
  0.302  0.040  0.000  0.613  0.045
  0.223  0.434  0.000  0.145  0.198
  0.434  0.223  0.000  0.198  0.145
    occupations:
  0.993 -0.000 -0.000 -0.000 -0.000
 -0.000  0.993 -0.000 -0.001 -0.002
 -0.000 -0.000  0.993 -0.002  0.001
 -0.000 -0.001 -0.002  0.992  0.000
 -0.000 -0.002  0.001  0.000  0.992
atomic mag. moment =  -3.81364
atom    2   Tr[ns(na)] (up, down, total) =   1.25263  4.91386  6.16649
   spin  1
    eigenvalues: 
  0.179  0.193  0.193  0.344  0.344
    eigenvectors:
  1.000  0.000  0.000  0.000  0.000
  0.000  0.191  0.073  0.239  0.497
  0.000  0.073  0.191  0.497  0.239
  0.000  0.103  0.632  0.000  0.264
  0.000  0.632  0.103  0.264  0.000
    occupations:
  0.179 -0.000 -0.000 -0.000 -0.000
 -0.000  0.304 -0.000 -0.054  0.039
 -0.000 -0.000  0.304  0.039  0.054
 -0.000 -0.054  0.039  0.233  0.000
 -0.000  0.039  0.054  0.000  0.233
   spin  2
    eigenvalues: 
  0.969  0.969  0.991  0.992  0.992
    eigenvectors:
  0.000  0.000  1.000  0.000  0.000
  0.478  0.173  0.000  0.299  0.049
  0.173  0.478  0.000  0.049  0.299
  0.004  0.344  0.000  0.044  0.608
  0.344  0.004  0.000  0.608  0.044
    occupations:
  0.991 -0.000 -0.000 -0.000 -0.000
 -0.000  0.977 -0.000  0.007 -0.009
 -0.000 -0.000  0.977 -0.009 -0.007
 -0.000  0.007 -0.009  0.984  0.000
 -0.000 -0.009 -0.007  0.000  0.984
atomic mag. moment =  -3.66122
atom    3   Tr[ns(na)] (up, down, total) =   1.26880  4.91890  6.18770
   spin  1
    eigenvalues: 
  0.198  0.198  0.208  0.332  0.332
    eigenvectors:
  0.000  0.000  1.000  0.000  0.000
  0.362  0.241  0.000  0.294  0.104
  0.241  0.362  0.000  0.104  0.294
  0.024  0.374  0.000  0.088  0.514
  0.374  0.024  0.000  0.514  0.088
    occupations:
  0.208 -0.000 -0.000 -0.000 -0.000
 -0.000  0.251 -0.000 -0.053  0.039
 -0.000 -0.000  0.251  0.039  0.053
 -0.000 -0.053  0.039  0.279  0.000
 -0.000  0.039  0.053  0.000  0.279
   spin  2
    eigenvalues: 
  0.973  0.973  0.990  0.991  0.991
    eigenvectors:
  0.000  0.000  1.000  0.000  0.000
  0.456  0.089  0.000  0.340  0.114
  0.089  0.456  0.000  0.114  0.340
  0.044  0.411  0.000  0.023  0.523
  0.411  0.044  0.000  0.523  0.023
    occupations:
  0.990 -0.000 -0.000 -0.000 -0.000
 -0.000  0.981 -0.000  0.006 -0.007
 -0.000 -0.000  0.981 -0.007 -0.006
 -0.000  0.006 -0.007  0.983  0.000
 -0.000 -0.007 -0.006  0.000  0.983
atomic mag. moment =  -3.65010
atom    4   Tr[ns(na)] (up, down, total) =   4.91906  1.27035  6.18941
   spin  1
    eigenvalues: 
  0.973  0.973  0.990  0.991  0.991
    eigenvectors:
  0.000  0.000  1.000  0.000  0.000
  0.010  0.535  0.000  0.050  0.404
  0.535  0.010  0.000  0.404  0.050
  0.190  0.265  0.000  0.126  0.419
  0.265  0.190  0.000  0.419  0.126
    occupations:
  0.990 -0.000 -0.000 -0.000 -0.000
 -0.000  0.981 -0.000 -0.006 -0.007
 -0.000 -0.000  0.981 -0.007  0.006
 -0.000 -0.006 -0.007  0.983  0.000
 -0.000 -0.007  0.006  0.000  0.983
   spin  2
    eigenvalues: 
  0.199  0.199  0.209  0.332  0.332
    eigenvectors:
  0.000  0.000  1.000  0.000  0.000
  0.001  0.602  0.000  0.001  0.396
  0.602  0.001  0.000  0.396  0.001
  0.157  0.240  0.000  0.182  0.421
  0.240  0.157  0.000  0.421  0.182
    occupations:
  0.209 -0.000 -0.000 -0.000 -0.000
 -0.000  0.252 -0.000  0.053  0.039
 -0.000 -0.000  0.252  0.039 -0.053
 -0.000  0.053  0.039  0.279  0.000
 -0.000  0.039 -0.053  0.000  0.279
atomic mag. moment =   3.64872
atom    5   Tr[ns(na)] (up, down, total) =   4.96210  1.14660  6.10870
   spin  1
    eigenvalues: 
  0.990  0.990  0.993  0.994  0.994
    eigenvectors:
  0.000  0.000  1.000  0.000  0.000
  0.336  0.005  0.000  0.440  0.219
  0.005  0.336  0.000  0.219  0.440
  0.141  0.518  0.000  0.000  0.341
  0.518  0.141  0.000  0.341  0.000
    occupations:
  0.993 -0.000 -0.000 -0.000 -0.000
 -0.000  0.993 -0.000  0.001 -0.002
 -0.000 -0.000  0.993 -0.002 -0.001
 -0.000  0.001 -0.002  0.992  0.000
 -0.000 -0.002 -0.001  0.000  0.992
   spin  2
    eigenvalues: 
  0.166  0.173  0.173  0.317  0.317
    eigenvectors:
  1.000  0.000  0.000  0.000  0.000
  0.000  0.366  0.020  0.587  0.026
  0.000  0.020  0.366  0.026  0.587
  0.000  0.060  0.553  0.043  0.343
  0.000  0.553  0.060  0.343  0.043
    occupations:
  0.166 -0.000 -0.000 -0.000 -0.000
 -0.000  0.261 -0.000 -0.036  0.060
 -0.000 -0.000  0.261  0.060  0.036
 -0.000 -0.036  0.060  0.229  0.000
 -0.000  0.060  0.036  0.000  0.229
atomic mag. moment =   3.81550
atom    6   Tr[ns(na)] (up, down, total) =   4.91400  1.25157  6.16557
   spin  1
    eigenvalues: 
  0.969  0.969  0.991  0.992  0.992
    eigenvectors:
  0.000  0.000  1.000  0.000  0.000
  0.009  0.642  0.000  0.071  0.277
  0.642  0.009  0.000  0.277  0.071
  0.180  0.168  0.000  0.125  0.527
  0.168  0.180  0.000  0.527  0.125
    occupations:
  0.991 -0.000 -0.000 -0.000 -0.000
 -0.000  0.977 -0.000 -0.007 -0.009
 -0.000 -0.000  0.977 -0.009  0.007
 -0.000 -0.007 -0.009  0.984  0.000
 -0.000 -0.009  0.007  0.000  0.984
   spin  2
    eigenvalues: 
  0.179  0.193  0.193  0.344  0.344
    eigenvectors:
  1.000  0.000  0.000  0.000  0.000
  0.000  0.004  0.260  0.005  0.730
  0.000  0.260  0.004  0.730  0.005
  0.000  0.172  0.563  0.114  0.151
  0.000  0.563  0.172  0.151  0.114
    occupations:
  0.179 -0.000 -0.000 -0.000 -0.000
 -0.000  0.304 -0.000  0.054  0.039
 -0.000 -0.000  0.304  0.039 -0.054
 -0.000  0.054  0.039  0.233  0.000
 -0.000  0.039 -0.054  0.000  0.233
atomic mag. moment =   3.66242
N of occupied +U levels =   36.928377
 --- exit write_ns ---
 Atomic wfc used for LDA+U Projector are NOT orthogonalized
     Starting wfcs from file

     total cpu time spent up to now is       16.6 secs

     Self-consistent Calculation

     iteration #  1     ecut=    35.00 Ry     beta= 0.40
     CG style diagonalization
     c_bands:  3 eigenvalues not converged
     c_bands:  1 eigenvalues not converged
     c_bands:  3 eigenvalues not converged
     ethr =  1.00E-09,  avg # of iterations = 22.7
 --- enter write_ns ---
 LDA+U parameters:
alpha( 3) = -0.05000000
alpha( 4) = -0.05000000
atom    1   Tr[ns(na)] (up, down, total) =   1.15199  4.95976  6.11174
   spin  1
    eigenvalues: 
  0.165  0.175  0.175  0.318  0.318
    eigenvectors:
  1.000  0.000  0.000  0.000  0.000
  0.000  0.082  0.304  0.026  0.588
  0.000  0.304  0.082  0.588  0.026
  0.000  0.166  0.448  0.205  0.181
  0.000  0.448  0.166  0.181  0.205
    occupations:
  0.165 -0.000 -0.000 -0.000 -0.000
 -0.000  0.263 -0.000  0.036  0.060
 -0.000 -0.000  0.263  0.060 -0.036
 -0.000  0.036  0.060  0.230  0.000
 -0.000  0.060 -0.036  0.000  0.230
   spin  2
    eigenvalues: 
  0.989  0.989  0.993  0.994  0.994
    eigenvectors:
  0.000  0.000  1.000  0.000  0.000
  0.028  0.344  0.000  0.038  0.590
  0.344  0.028  0.000  0.590  0.038
  0.216  0.412  0.000  0.137  0.235
  0.412  0.216  0.000  0.235  0.137
    occupations:
  0.993 -0.000 -0.000 -0.000 -0.000
 -0.000  0.992 -0.000 -0.002 -0.002
 -0.000 -0.000  0.992 -0.002  0.002
 -0.000 -0.002 -0.002  0.991  0.000
 -0.000 -0.002  0.002  0.000  0.991
atomic mag. moment =  -3.80777
atom    2   Tr[ns(na)] (up, down, total) =   1.27029  4.91248  6.18278
   spin  1
    eigenvalues: 
  0.183  0.197  0.197  0.347  0.347
    eigenvectors:
  1.000  0.000  0.000  0.000  0.000
  0.000  0.187  0.074  0.235  0.504
  0.000  0.074  0.187  0.504  0.235
  0.000  0.104  0.635  0.000  0.261
  0.000  0.635  0.104  0.261  0.000
    occupations:
  0.183 -0.000 -0.000 -0.000 -0.000
 -0.000  0.308 -0.000 -0.054  0.039
 -0.000 -0.000  0.308  0.039  0.054
 -0.000 -0.054  0.039  0.236  0.000
 -0.000  0.039  0.054  0.000  0.236
   spin  2
    eigenvalues: 
  0.968  0.968  0.991  0.992  0.992
    eigenvectors:
  0.000  0.000  1.000  0.000  0.000
  0.480  0.171  0.000  0.299  0.051
  0.171  0.480  0.000  0.051  0.299
  0.005  0.345  0.000  0.044  0.607
  0.345  0.005  0.000  0.607  0.044
    occupations:
  0.991 -0.000 -0.000 -0.000 -0.000
 -0.000  0.977 -0.000  0.007 -0.009
 -0.000 -0.000  0.977 -0.009 -0.007
 -0.000  0.007 -0.009  0.984  0.000
 -0.000 -0.009 -0.007  0.000  0.984
atomic mag. moment =  -3.64219
atom    3   Tr[ns(na)] (up, down, total) =   1.29382  4.91737  6.21120
   spin  1
    eigenvalues: 
  0.204  0.204  0.214  0.336  0.336
    eigenvectors:
  0.000  0.000  1.000  0.000  0.000
  0.359  0.249  0.000  0.286  0.105
  0.249  0.359  0.000  0.105  0.286
  0.023  0.368  0.000  0.090  0.519
  0.368  0.023  0.000  0.519  0.090
    occupations:
  0.214 -0.000 -0.000 -0.000 -0.000
 -0.000  0.256 -0.000 -0.052  0.038
 -0.000 -0.000  0.256  0.038  0.052
 -0.000 -0.052  0.038  0.284  0.000
 -0.000  0.038  0.052  0.000  0.284
   spin  2
    eigenvalues: 
  0.972  0.972  0.990  0.991  0.991
    eigenvectors:
  0.000  0.000  1.000  0.000  0.000
  0.456  0.096  0.000  0.336  0.112
  0.096  0.456  0.000  0.112  0.336
  0.040  0.408  0.000  0.024  0.528
  0.408  0.040  0.000  0.528  0.024
    occupations:
  0.990 -0.000 -0.000 -0.000 -0.000
 -0.000  0.981 -0.000  0.006 -0.007
 -0.000 -0.000  0.981 -0.007 -0.006
 -0.000  0.006 -0.007  0.983  0.000
 -0.000 -0.007 -0.006  0.000  0.983
atomic mag. moment =  -3.62355
atom    4   Tr[ns(na)] (up, down, total) =   4.91682  1.28249  6.19931
   spin  1
    eigenvalues: 
  0.972  0.972  0.990  0.991  0.991
    eigenvectors:
  0.000  0.000  1.000  0.000  0.000
  0.010  0.541  0.000  0.050  0.399
  0.541  0.010  0.000  0.399  0.050
  0.189  0.261  0.000  0.126  0.425
  0.261  0.189  0.000  0.425  0.126
    occupations:
  0.990 -0.000 -0.000 -0.000 -0.000
 -0.000  0.981 -0.000 -0.006 -0.007
 -0.000 -0.000  0.981 -0.007  0.006
 -0.000 -0.006 -0.007  0.983  0.000
 -0.000 -0.007  0.006  0.000  0.983
   spin  2
    eigenvalues: 
  0.201  0.201  0.211  0.334  0.334
    eigenvectors:
  0.000  0.000  1.000  0.000  0.000
  0.001  0.606  0.000  0.001  0.392
  0.606  0.001  0.000  0.392  0.001
  0.157  0.237  0.000  0.183  0.424
  0.237  0.157  0.000  0.424  0.183
    occupations:
  0.211 -0.000 -0.000 -0.000 -0.000
 -0.000  0.254 -0.000  0.052  0.039
 -0.000 -0.000  0.254  0.039 -0.052
 -0.000  0.052  0.039  0.282  0.000
 -0.000  0.039 -0.052  0.000  0.282
atomic mag. moment =   3.63433
atom    5   Tr[ns(na)] (up, down, total) =   4.96104  1.17711  6.13815
   spin  1
    eigenvalues: 
  0.990  0.990  0.993  0.994  0.994
    eigenvectors:
  0.000  0.000  1.000  0.000  0.000
  0.352  0.012  0.000  0.423  0.213
  0.012  0.352  0.000  0.213  0.423
  0.127  0.509  0.000  0.000  0.364
  0.509  0.127  0.000  0.364  0.000
    occupations:
  0.993 -0.000 -0.000 -0.000 -0.000
 -0.000  0.993 -0.000  0.001 -0.002
 -0.000 -0.000  0.993 -0.002 -0.001
 -0.000  0.001 -0.002  0.991  0.000
 -0.000 -0.002 -0.001  0.000  0.991
   spin  2
    eigenvalues: 
  0.177  0.180  0.180  0.320  0.320
    eigenvectors:
  1.000  0.000  0.000  0.000  0.000
  0.000  0.366  0.017  0.597  0.019
  0.000  0.017  0.366  0.019  0.597
  0.000  0.062  0.555  0.047  0.337
  0.000  0.555  0.062  0.337  0.047
    occupations:
  0.177 -0.000 -0.000 -0.000 -0.000
 -0.000  0.266 -0.000 -0.035  0.059
 -0.000 -0.000  0.266  0.059  0.035
 -0.000 -0.035  0.059  0.234  0.000
 -0.000  0.059  0.035  0.000  0.234
atomic mag. moment =   3.78393
atom    6   Tr[ns(na)] (up, down, total) =   4.91235  1.28200  6.19436
   spin  1
    eigenvalues: 
  0.968  0.968  0.991  0.992  0.992
    eigenvectors:
  0.000  0.000  1.000  0.000  0.000
  0.009  0.643  0.000  0.070  0.279
  0.643  0.009  0.000  0.279  0.070
  0.179  0.169  0.000  0.125  0.527
  0.169  0.179  0.000  0.527  0.125
    occupations:
  0.991 -0.000 -0.000 -0.000 -0.000
 -0.000  0.977 -0.000 -0.007 -0.009
 -0.000 -0.000  0.977 -0.009  0.007
 -0.000 -0.007 -0.009  0.984  0.000
 -0.000 -0.009  0.007  0.000  0.984
   spin  2
    eigenvalues: 
  0.184  0.201  0.201  0.348  0.348
    eigenvectors:
  1.000  0.000  0.000  0.000  0.000
  0.000  0.003  0.254  0.007  0.736
  0.000  0.254  0.003  0.736  0.007
  0.000  0.174  0.570  0.109  0.148
  0.000  0.570  0.174  0.148  0.109
    occupations:
  0.184 -0.000 -0.000 -0.000 -0.000
 -0.000  0.310 -0.000  0.053  0.037
 -0.000 -0.000  0.310  0.037 -0.053
 -0.000  0.053  0.037  0.239  0.000
 -0.000  0.037 -0.053  0.000  0.239
atomic mag. moment =   3.63035
N of occupied +U levels =   37.037535
 --- exit write_ns ---

     negative rho (up, down):  1.235E-01 1.235E-01
 --- in v_hubbard ---
Hubbard energy   -0.1359
 -------

     total cpu time spent up to now is      818.1 secs

     total energy              =   -3195.17280707 Ry
     estimated scf accuracy    <       0.00150766 Ry

     total magnetization       =    -0.02 Bohr mag/cell
     absolute magnetization    =    27.22 Bohr mag/cell

     iteration #  2     ecut=    35.00 Ry     beta= 0.40
     CG style diagonalization
     ethr =  5.13E-07,  avg # of iterations =  3.4
 --- enter write_ns ---
 LDA+U parameters:
alpha( 3) = -0.05000000
alpha( 4) = -0.05000000
atom    1   Tr[ns(na)] (up, down, total) =   1.23611  4.96502  6.20113
   spin  1
    eigenvalues: 
  0.190  0.190  0.212  0.322  0.322
    eigenvectors:
  0.000  0.000  1.000  0.000  0.000
  0.096  0.276  0.000  0.032  0.596
  0.276  0.096  0.000  0.596  0.032
  0.167  0.461  0.000  0.210  0.162
  0.461  0.167  0.000  0.162  0.210
    occupations:
  0.212 -0.000 -0.000 -0.000 -0.000
 -0.000  0.273 -0.000  0.030  0.056
 -0.000 -0.000  0.273  0.056 -0.030
 -0.000  0.030  0.056  0.239  0.000
 -0.000  0.056 -0.030  0.000  0.239
   spin  2
    eigenvalues: 
  0.991  0.991  0.993  0.995  0.995
    eigenvectors:
  0.000  0.000  1.000  0.000  0.000
  0.063  0.222  0.000  0.033  0.682
  0.222  0.063  0.000  0.682  0.033
  0.232  0.483  0.000  0.169  0.116
  0.483  0.232  0.000  0.116  0.169
    occupations:
  0.993 -0.000 -0.000 -0.000 -0.000
 -0.000  0.994 -0.000 -0.001 -0.001
 -0.000 -0.000  0.994 -0.001  0.001
 -0.000 -0.001 -0.001  0.992  0.000
 -0.000 -0.001  0.001  0.000  0.992
atomic mag. moment =  -3.72891
atom    2   Tr[ns(na)] (up, down, total) =   1.27317  4.91403  6.18720
   spin  1
    eigenvalues: 
  0.180  0.203  0.203  0.344  0.344
    eigenvectors:
  1.000  0.000  0.000  0.000  0.000
  0.000  0.172  0.075  0.209  0.544
  0.000  0.075  0.172  0.544  0.209
  0.000  0.115  0.638  0.000  0.247
  0.000  0.638  0.115  0.247  0.000
    occupations:
  0.180 -0.000 -0.000 -0.000 -0.000
 -0.000  0.309 -0.000 -0.051  0.034
 -0.000 -0.000  0.309  0.034  0.051
 -0.000 -0.051  0.034  0.238  0.000
 -0.000  0.034  0.051  0.000  0.238
   spin  2
    eigenvalues: 
  0.969  0.969  0.991  0.992  0.992
    eigenvectors:
  0.000  0.000  1.000  0.000  0.000
  0.479  0.175  0.000  0.298  0.049
  0.175  0.479  0.000  0.049  0.298
  0.004  0.343  0.000  0.044  0.609
  0.343  0.004  0.000  0.609  0.044
    occupations:
  0.991 -0.000 -0.000 -0.000 -0.000
 -0.000  0.977 -0.000  0.007 -0.009
 -0.000 -0.000  0.977 -0.009 -0.007
 -0.000  0.007 -0.009  0.984  0.000
 -0.000 -0.009 -0.007  0.000  0.984
atomic mag. moment =  -3.64086
atom    3   Tr[ns(na)] (up, down, total) =   1.26103  4.92180  6.18283
   spin  1
    eigenvalues: 
  0.197  0.197  0.209  0.330  0.330
    eigenvectors:
  0.000  0.000  1.000  0.000  0.000
  0.371  0.244  0.000  0.292  0.093
  0.244  0.371  0.000  0.093  0.292
  0.021  0.365  0.000  0.094  0.521
  0.365  0.021  0.000  0.521  0.094
    occupations:
  0.209 -0.000 -0.000 -0.000 -0.000
 -0.000  0.248 -0.000 -0.051  0.039
 -0.000 -0.000  0.248  0.039  0.051
 -0.000 -0.051  0.039  0.278  0.000
 -0.000  0.039  0.051  0.000  0.278
   spin  2
    eigenvalues: 
  0.975  0.975  0.990  0.991  0.991
    eigenvectors:
  0.000  0.000  1.000  0.000  0.000
  0.451  0.077  0.000  0.350  0.123
  0.077  0.451  0.000  0.123  0.350
  0.052  0.421  0.000  0.019  0.508
  0.421  0.052  0.000  0.508  0.019
    occupations:
  0.990 -0.000 -0.000 -0.000 -0.000
 -0.000  0.983 -0.000  0.005 -0.006
 -0.000 -0.000  0.983 -0.006 -0.005
 -0.000  0.005 -0.006  0.983  0.000
 -0.000 -0.006 -0.005  0.000  0.983
atomic mag. moment =  -3.66077
atom    4   Tr[ns(na)] (up, down, total) =   4.91058  1.27219  6.18277
   spin  1
    eigenvalues: 
  0.969  0.969  0.990  0.991  0.991
    eigenvectors:
  0.000  0.000  1.000  0.000  0.000
  0.006  0.556  0.000  0.041  0.396
  0.556  0.006  0.000  0.396  0.041
  0.181  0.256  0.000  0.126  0.437
  0.256  0.181  0.000  0.437  0.126
    occupations:
  0.990 -0.000 -0.000 -0.000 -0.000
 -0.000  0.979 -0.000 -0.007 -0.008
 -0.000 -0.000  0.979 -0.008  0.007
 -0.000 -0.007 -0.008  0.981  0.000
 -0.000 -0.008  0.007  0.000  0.981
   spin  2
    eigenvalues: 
  0.198  0.198  0.210  0.333  0.333
    eigenvectors:
  0.000  0.000  1.000  0.000  0.000
  0.001  0.595  0.000  0.001  0.403
  0.595  0.001  0.000  0.403  0.001
  0.158  0.246  0.000  0.181  0.414
  0.246  0.158  0.000  0.414  0.181
    occupations:
  0.210 -0.000 -0.000 -0.000 -0.000
 -0.000  0.253 -0.000  0.053  0.039
 -0.000 -0.000  0.253  0.039 -0.053
 -0.000  0.053  0.039  0.278  0.000
 -0.000  0.039 -0.053  0.000  0.278
atomic mag. moment =   3.63839
atom    5   Tr[ns(na)] (up, down, total) =   4.93991  1.11553  6.05544
   spin  1
    eigenvalues: 
  0.980  0.980  0.992  0.994  0.994
    eigenvectors:
  0.000  0.000  1.000  0.000  0.000
  0.374  0.121  0.000  0.317  0.188
  0.121  0.374  0.000  0.188  0.317
  0.054  0.451  0.000  0.019  0.476
  0.451  0.054  0.000  0.476  0.019
    occupations:
  0.992 -0.000 -0.000 -0.000 -0.000
 -0.000  0.987 -0.000  0.005 -0.005
 -0.000 -0.000  0.987 -0.005 -0.005
 -0.000  0.005 -0.005  0.987  0.000
 -0.000 -0.005 -0.005  0.000  0.987
   spin  2
    eigenvalues: 
  0.157  0.169  0.169  0.311  0.311
    eigenvectors:
  1.000  0.000  0.000  0.000  0.000
  0.000  0.364  0.025  0.575  0.035
  0.000  0.025  0.364  0.035  0.575
  0.000  0.057  0.554  0.040  0.350
  0.000  0.554  0.057  0.350  0.040
    occupations:
  0.157 -0.000 -0.000 -0.000 -0.000
 -0.000  0.255 -0.000 -0.037  0.058
 -0.000 -0.000  0.255  0.058  0.037
 -0.000 -0.037  0.058  0.224  0.000
 -0.000  0.058  0.037  0.000  0.224
atomic mag. moment =   3.82438
atom    6   Tr[ns(na)] (up, down, total) =   4.89562  1.21250  6.10812
   spin  1
    eigenvalues: 
  0.961  0.961  0.990  0.992  0.992
    eigenvectors:
  0.000  0.000  1.000  0.000  0.000
  0.007  0.622  0.000  0.057  0.315
  0.622  0.007  0.000  0.315  0.057
  0.177  0.195  0.000  0.126  0.503
  0.195  0.177  0.000  0.503  0.126
    occupations:
  0.990 -0.000 -0.000 -0.000 -0.000
 -0.000  0.972 -0.000 -0.010 -0.011
 -0.000 -0.000  0.972 -0.011  0.010
 -0.000 -0.010 -0.011  0.980  0.000
 -0.000 -0.011  0.010  0.000  0.980
   spin  2
    eigenvalues: 
  0.172  0.183  0.183  0.337  0.337
    eigenvectors:
  1.000  0.000  0.000  0.000  0.000
  0.000  0.008  0.267  0.003  0.723
  0.000  0.267  0.008  0.723  0.003
  0.000  0.170  0.555  0.123  0.152
  0.000  0.555  0.170  0.152  0.123
    occupations:
  0.172 -0.000 -0.000 -0.000 -0.000
 -0.000  0.295 -0.000  0.054  0.043
 -0.000 -0.000  0.295  0.043 -0.054
 -0.000  0.054  0.043  0.225  0.000
 -0.000  0.043 -0.054  0.000  0.225
atomic mag. moment =   3.68312
N of occupied +U levels =   36.917494
 --- exit write_ns ---

     negative rho (up, down):  1.235E-01 1.235E-01
 --- in v_hubbard ---
Hubbard energy   -0.1359
 -------

     total cpu time spent up to now is      946.1 secs

     total energy              =   -3195.17165558 Ry
     estimated scf accuracy    <       0.02745048 Ry

     total magnetization       =    -0.02 Bohr mag/cell
     absolute magnetization    =    27.15 Bohr mag/cell

     iteration #  3     ecut=    35.00 Ry     beta= 0.40
     CG style diagonalization
     ethr =  5.13E-07,  avg # of iterations =  3.2
 --- enter write_ns ---
 LDA+U parameters:
alpha( 3) = -0.05000000
alpha( 4) = -0.05000000
atom    1   Tr[ns(na)] (up, down, total) =   1.12528  4.95522  6.08050
   spin  1
    eigenvalues: 
  0.155  0.171  0.171  0.314  0.314
    eigenvectors:
  1.000  0.000  0.000  0.000  0.000
  0.000  0.077  0.316  0.024  0.583
  0.000  0.316  0.077  0.583  0.024
  0.000  0.165  0.443  0.204  0.189
  0.000  0.443  0.165  0.189  0.204
    occupations:
  0.155 -0.000 -0.000 -0.000 -0.000
 -0.000  0.258 -0.000  0.038  0.059
 -0.000 -0.000  0.258  0.059 -0.038
 -0.000  0.038  0.059  0.227  0.000
 -0.000  0.059 -0.038  0.000  0.227
   spin  2
    eigenvalues: 
  0.987  0.987  0.993  0.994  0.994
    eigenvectors:
  0.000  0.000  1.000  0.000  0.000
  0.017  0.401  0.000  0.034  0.548
  0.401  0.017  0.000  0.548  0.034
  0.205  0.377  0.000  0.130  0.288
  0.377  0.205  0.000  0.288  0.130
    occupations:
  0.993 -0.000 -0.000 -0.000 -0.000
 -0.000  0.991 -0.000 -0.002 -0.003
 -0.000 -0.000  0.991 -0.003  0.002
 -0.000 -0.002 -0.003  0.990  0.000
 -0.000 -0.003  0.002  0.000  0.990
atomic mag. moment =  -3.82994
atom    2   Tr[ns(na)] (up, down, total) =   1.22734  4.90444  6.13178
   spin  1
    eigenvalues: 
  0.176  0.186  0.186  0.340  0.340
    eigenvectors:
  1.000  0.000  0.000  0.000  0.000
  0.000  0.206  0.071  0.260  0.463
  0.000  0.071  0.206  0.463  0.260
  0.000  0.096  0.627  0.000  0.277
  0.000  0.627  0.096  0.277  0.000
    occupations:
  0.176 -0.000 -0.000 -0.000 -0.000
 -0.000  0.297 -0.000 -0.054  0.043
 -0.000 -0.000  0.297  0.043  0.054
 -0.000 -0.054  0.043  0.228  0.000
 -0.000  0.043  0.054  0.000  0.228
   spin  2
    eigenvalues: 
  0.965  0.965  0.991  0.992  0.992
    eigenvectors:
  0.000  0.000  1.000  0.000  0.000
  0.474  0.174  0.000  0.298  0.054
  0.174  0.474  0.000  0.054  0.298
  0.005  0.348  0.000  0.043  0.604
  0.348  0.005  0.000  0.604  0.043
    occupations:
  0.991 -0.000 -0.000 -0.000 -0.000
 -0.000  0.974 -0.000  0.008 -0.010
 -0.000 -0.000  0.974 -0.010 -0.008
 -0.000  0.008 -0.010  0.983  0.000
 -0.000 -0.010 -0.008  0.000  0.983
atomic mag. moment =  -3.67710
atom    3   Tr[ns(na)] (up, down, total) =   1.24812  4.91140  6.15952
   spin  1
    eigenvalues: 
  0.193  0.193  0.204  0.329  0.329
    eigenvectors:
  0.000  0.000  1.000  0.000  0.000
  0.365  0.224  0.000  0.307  0.105
  0.224  0.365  0.000  0.105  0.307
  0.026  0.386  0.000  0.084  0.505
  0.386  0.026  0.000  0.505  0.084
    occupations:
  0.204 -0.000 -0.000 -0.000 -0.000
 -0.000  0.249 -0.000 -0.053  0.041
 -0.000 -0.000  0.249  0.041  0.053
 -0.000 -0.053  0.041  0.273  0.000
 -0.000  0.041  0.053  0.000  0.273
   spin  2
    eigenvalues: 
  0.970  0.970  0.990  0.991  0.991
    eigenvectors:
  0.000  0.000  1.000  0.000  0.000
  0.456  0.100  0.000  0.333  0.111
  0.100  0.456  0.000  0.111  0.333
  0.038  0.405  0.000  0.025  0.532
  0.405  0.038  0.000  0.532  0.025
    occupations:
  0.990 -0.000 -0.000 -0.000 -0.000
 -0.000  0.979 -0.000  0.007 -0.008
 -0.000 -0.000  0.979 -0.008 -0.007
 -0.000  0.007 -0.008  0.982  0.000
 -0.000 -0.008 -0.007  0.000  0.982
atomic mag. moment =  -3.66328
atom    4   Tr[ns(na)] (up, down, total) =   4.92286  1.29689  6.21975
   spin  1
    eigenvalues: 
  0.975  0.975  0.990  0.991  0.991
    eigenvectors:
  0.000  0.000  1.000  0.000  0.000
  0.011  0.524  0.000  0.050  0.415
  0.524  0.011  0.000  0.415  0.050
  0.192  0.273  0.000  0.126  0.409
  0.273  0.192  0.000  0.409  0.126
    occupations:
  0.990 -0.000 -0.000 -0.000 -0.000
 -0.000  0.983 -0.000 -0.005 -0.006
 -0.000 -0.000  0.983 -0.006  0.005
 -0.000 -0.005 -0.006  0.984  0.000
 -0.000 -0.006  0.005  0.000  0.984
   spin  2
    eigenvalues: 
  0.205  0.205  0.214  0.336  0.336
    eigenvectors:
  0.000  0.000  1.000  0.000  0.000
  0.003  0.623  0.000  0.001  0.373
  0.623  0.003  0.000  0.373  0.001
  0.151  0.223  0.000  0.182  0.444
  0.223  0.151  0.000  0.444  0.182
    occupations:
  0.214 -0.000 -0.000 -0.000 -0.000
 -0.000  0.254 -0.000  0.052  0.037
 -0.000 -0.000  0.254  0.037 -0.052
 -0.000  0.052  0.037  0.287  0.000
 -0.000  0.037 -0.052  0.000  0.287
atomic mag. moment =   3.62597
atom    5   Tr[ns(na)] (up, down, total) =   4.96347  1.16747  6.13094
   spin  1
    eigenvalues: 
  0.991  0.991  0.993  0.994  0.994
    eigenvectors:
  0.000  0.000  1.000  0.000  0.000
  0.291  0.000  0.000  0.461  0.248
  0.000  0.291  0.000  0.248  0.461
  0.167  0.542  0.000  0.005  0.286
  0.542  0.167  0.000  0.286  0.005
    occupations:
  0.993 -0.000 -0.000 -0.000 -0.000
 -0.000  0.993 -0.000  0.001 -0.001
 -0.000 -0.000  0.993 -0.001 -0.001
 -0.000  0.001 -0.001  0.992  0.000
 -0.000 -0.001 -0.001  0.000  0.992
   spin  2
    eigenvalues: 
  0.177  0.177  0.179  0.317  0.317
    eigenvectors:
  0.000  0.000  1.000  0.000  0.000
  0.363  0.016  0.000  0.602  0.019
  0.016  0.363  0.000  0.019  0.602
  0.063  0.558  0.000  0.045  0.333
  0.558  0.063  0.000  0.333  0.045
    occupations:
  0.179 -0.000 -0.000 -0.000 -0.000
 -0.000  0.264 -0.000 -0.034  0.058
 -0.000 -0.000  0.264  0.058  0.034
 -0.000 -0.034  0.058  0.230  0.000
 -0.000  0.058  0.034  0.000  0.230
atomic mag. moment =   3.79600
atom    6   Tr[ns(na)] (up, down, total) =   4.91704  1.27251  6.18956
   spin  1
    eigenvalues: 
  0.971  0.971  0.991  0.992  0.992
    eigenvectors:
  0.000  0.000  1.000  0.000  0.000
  0.010  0.642  0.000  0.073  0.275
  0.642  0.010  0.000  0.275  0.073
  0.181  0.167  0.000  0.124  0.528
  0.167  0.181  0.000  0.528  0.124
    occupations:
  0.991 -0.000 -0.000 -0.000 -0.000
 -0.000  0.978 -0.000 -0.006 -0.008
 -0.000 -0.000  0.978 -0.008  0.006
 -0.000 -0.006 -0.008  0.985  0.000
 -0.000 -0.008  0.006  0.000  0.985
   spin  2
    eigenvalues: 
  0.181  0.200  0.200  0.346  0.346
    eigenvectors:
  1.000  0.000  0.000  0.000  0.000
  0.000  0.002  0.248  0.009  0.741
  0.000  0.248  0.002  0.741  0.009
  0.000  0.174  0.576  0.102  0.147
  0.000  0.576  0.174  0.147  0.102
    occupations:
  0.181 -0.000 -0.000 -0.000 -0.000
 -0.000  0.309 -0.000  0.053  0.035
 -0.000 -0.000  0.309  0.035 -0.053
 -0.000  0.053  0.035  0.236  0.000
 -0.000  0.035 -0.053  0.000  0.236
atomic mag. moment =   3.64453
N of occupied +U levels =   36.912048
 --- exit write_ns ---

     negative rho (up, down):  1.235E-01 1.235E-01
 --- in v_hubbard ---
Hubbard energy   -0.1358
 -------

     total cpu time spent up to now is     1061.7 secs

     total energy              =   -3195.17296299 Ry
     estimated scf accuracy    <       0.00985431 Ry

     total magnetization       =    -0.03 Bohr mag/cell
     absolute magnetization    =    27.27 Bohr mag/cell

     iteration #  4     ecut=    35.00 Ry     beta= 0.40
     CG style diagonalization
     ethr =  5.13E-07,  avg # of iterations =  3.0
 --- enter write_ns ---
 LDA+U parameters:
alpha( 3) = -0.05000000
alpha( 4) = -0.05000000
atom    1   Tr[ns(na)] (up, down, total) =   1.14618  4.96098  6.10716
   spin  1
    eigenvalues: 
  0.166  0.174  0.174  0.316  0.316
    eigenvectors:
  1.000  0.000  0.000  0.000  0.000
  0.000  0.082  0.304  0.026  0.588
  0.000  0.304  0.082  0.588  0.026
  0.000  0.165  0.449  0.205  0.181
  0.000  0.449  0.165  0.181  0.205
    occupations:
  0.166 -0.000 -0.000 -0.000 -0.000
 -0.000  0.261 -0.000  0.036  0.059
 -0.000 -0.000  0.261  0.059 -0.036
 -0.000  0.036  0.059  0.229  0.000
 -0.000  0.059 -0.036  0.000  0.229
   spin  2
    eigenvalues: 
  0.990  0.990  0.993  0.994  0.994
    eigenvectors:
  0.000  0.000  1.000  0.000  0.000
  0.038  0.306  0.000  0.042  0.614
  0.306  0.038  0.000  0.614  0.042
  0.223  0.433  0.000  0.144  0.200
  0.433  0.223  0.000  0.200  0.144
    occupations:
  0.993 -0.000 -0.000 -0.000 -0.000
 -0.000  0.993 -0.000 -0.001 -0.002
 -0.000 -0.000  0.993 -0.002  0.001
 -0.000 -0.001 -0.002  0.991  0.000
 -0.000 -0.002  0.001  0.000  0.991
atomic mag. moment =  -3.81480
atom    2   Tr[ns(na)] (up, down, total) =   1.27039  4.91458  6.18497
   spin  1
    eigenvalues: 
  0.182  0.197  0.197  0.347  0.347
    eigenvectors:
  1.000  0.000  0.000  0.000  0.000
  0.000  0.182  0.076  0.225  0.517
  0.000  0.076  0.182  0.517  0.225
  0.000  0.106  0.636  0.000  0.258
  0.000  0.636  0.106  0.258  0.000
    occupations:
  0.182 -0.000 -0.000 -0.000 -0.000
 -0.000  0.308 -0.000 -0.053  0.037
 -0.000 -0.000  0.308  0.037  0.053
 -0.000 -0.053  0.037  0.236  0.000
 -0.000  0.037  0.053  0.000  0.236
   spin  2
    eigenvalues: 
  0.969  0.969  0.991  0.992  0.992
    eigenvectors:
  0.000  0.000  1.000  0.000  0.000
  0.482  0.170  0.000  0.299  0.049
  0.170  0.482  0.000  0.049  0.299
  0.004  0.344  0.000  0.044  0.608
  0.344  0.004  0.000  0.608  0.044
    occupations:
  0.991 -0.000 -0.000 -0.000 -0.000
 -0.000  0.977 -0.000  0.007 -0.009
 -0.000 -0.000  0.977 -0.009 -0.007
 -0.000  0.007 -0.009  0.984  0.000
 -0.000 -0.009 -0.007  0.000  0.984
atomic mag. moment =  -3.64419
atom    3   Tr[ns(na)] (up, down, total) =   1.28489  4.91837  6.20326
   spin  1
    eigenvalues: 
  0.202  0.202  0.212  0.335  0.335
    eigenvectors:
  0.000  0.000  1.000  0.000  0.000
  0.358  0.252  0.000  0.285  0.105
  0.252  0.358  0.000  0.105  0.285
  0.023  0.367  0.000  0.091  0.519
  0.367  0.023  0.000  0.519  0.091
    occupations:
  0.212 -0.000 -0.000 -0.000 -0.000
 -0.000  0.254 -0.000 -0.052  0.038
 -0.000 -0.000  0.254  0.038  0.052
 -0.000 -0.052  0.038  0.283  0.000
 -0.000  0.038  0.052  0.000  0.283
   spin  2
    eigenvalues: 
  0.973  0.973  0.990  0.991  0.991
    eigenvectors:
  0.000  0.000  1.000  0.000  0.000
  0.457  0.090  0.000  0.339  0.113
  0.090  0.457  0.000  0.113  0.339
  0.043  0.410  0.000  0.023  0.524
  0.410  0.043  0.000  0.524  0.023
    occupations:
  0.990 -0.000 -0.000 -0.000 -0.000
 -0.000  0.981 -0.000  0.006 -0.007
 -0.000 -0.000  0.981 -0.007 -0.006
 -0.000  0.006 -0.007  0.983  0.000
 -0.000 -0.007 -0.006  0.000  0.983
atomic mag. moment =  -3.63349
atom    4   Tr[ns(na)] (up, down, total) =   4.91483  1.26540  6.18023
   spin  1
    eigenvalues: 
  0.972  0.972  0.990  0.991  0.991
    eigenvectors:
  0.000  0.000  1.000  0.000  0.000
  0.010  0.543  0.000  0.051  0.396
  0.543  0.010  0.000  0.396  0.051
  0.189  0.258  0.000  0.126  0.428
  0.258  0.189  0.000  0.428  0.126
    occupations:
  0.990 -0.000 -0.000 -0.000 -0.000
 -0.000  0.980 -0.000 -0.006 -0.007
 -0.000 -0.000  0.980 -0.007  0.006
 -0.000 -0.006 -0.007  0.982  0.000
 -0.000 -0.007  0.006  0.000  0.982
   spin  2
    eigenvalues: 
  0.197  0.197  0.208  0.331  0.331
    eigenvectors:
  0.000  0.000  1.000  0.000  0.000
  0.001  0.600  0.000  0.001  0.398
  0.600  0.001  0.000  0.398  0.001
  0.158  0.241  0.000  0.183  0.418
  0.241  0.158  0.000  0.418  0.183
    occupations:
  0.208 -0.000 -0.000 -0.000 -0.000
 -0.000  0.251 -0.000  0.052  0.039
 -0.000 -0.000  0.251  0.039 -0.052
 -0.000  0.052  0.039  0.278  0.000
 -0.000  0.039 -0.052  0.000  0.278
atomic mag. moment =   3.64943
atom    5   Tr[ns(na)] (up, down, total) =   4.95999  1.15019  6.11018
   spin  1
    eigenvalues: 
  0.989  0.989  0.993  0.994  0.994
    eigenvectors:
  0.000  0.000  1.000  0.000  0.000
  0.354  0.012  0.000  0.423  0.211
  0.012  0.354  0.000  0.211  0.423
  0.126  0.508  0.000  0.000  0.365
  0.508  0.126  0.000  0.365  0.000
    occupations:
  0.993 -0.000 -0.000 -0.000 -0.000
 -0.000  0.992 -0.000  0.001 -0.002
 -0.000 -0.000  0.992 -0.002 -0.001
 -0.000  0.001 -0.002  0.991  0.000
 -0.000 -0.002 -0.001  0.000  0.991
   spin  2
    eigenvalues: 
  0.168  0.174  0.174  0.317  0.317
    eigenvectors:
  1.000  0.000  0.000  0.000  0.000
  0.000  0.367  0.020  0.589  0.024
  0.000  0.020  0.367  0.024  0.589
  0.000  0.059  0.553  0.045  0.342
  0.000  0.553  0.059  0.342  0.045
    occupations:
  0.168 -0.000 -0.000 -0.000 -0.000
 -0.000  0.262 -0.000 -0.036  0.059
 -0.000 -0.000  0.262  0.059  0.036
 -0.000 -0.036  0.059  0.230  0.000
 -0.000  0.059  0.036  0.000  0.230
atomic mag. moment =   3.80980
atom    6   Tr[ns(na)] (up, down, total) =   4.91075  1.25696  6.16772
   spin  1
    eigenvalues: 
  0.968  0.968  0.991  0.992  0.992
    eigenvectors:
  0.000  0.000  1.000  0.000  0.000
  0.009  0.642  0.000  0.070  0.278
  0.642  0.009  0.000  0.278  0.070
  0.179  0.169  0.000  0.125  0.526
  0.169  0.179  0.000  0.526  0.125
    occupations:
  0.991 -0.000 -0.000 -0.000 -0.000
 -0.000  0.976 -0.000 -0.007 -0.009
 -0.000 -0.000  0.976 -0.009  0.007
 -0.000 -0.007 -0.009  0.984  0.000
 -0.000 -0.009  0.007  0.000  0.984
   spin  2
    eigenvalues: 
  0.180  0.194  0.194  0.344  0.344
    eigenvectors:
  1.000  0.000  0.000  0.000  0.000
  0.000  0.004  0.259  0.006  0.731
  0.000  0.259  0.004  0.731  0.006
  0.000  0.172  0.565  0.113  0.150
  0.000  0.565  0.172  0.150  0.113
    occupations:
  0.180 -0.000 -0.000 -0.000 -0.000
 -0.000  0.305 -0.000  0.053  0.039
 -0.000 -0.000  0.305  0.039 -0.053
 -0.000  0.053  0.039  0.234  0.000
 -0.000  0.039 -0.053  0.000  0.234
atomic mag. moment =   3.65379
N of occupied +U levels =   36.953513
 --- exit write_ns ---

     negative rho (up, down):  1.235E-01 1.235E-01
 --- in v_hubbard ---
Hubbard energy   -0.1358
 -------

     total cpu time spent up to now is     1169.6 secs

     total energy              =   -3195.17341661 Ry
     estimated scf accuracy    <       0.00068832 Ry

     total magnetization       =    -0.00 Bohr mag/cell
     absolute magnetization    =    27.26 Bohr mag/cell

     iteration #  5     ecut=    35.00 Ry     beta= 0.40
     CG style diagonalization
     ethr =  2.34E-07,  avg # of iterations =  3.0
 --- enter write_ns ---
 LDA+U parameters:
alpha( 3) = -0.05000000
alpha( 4) = -0.05000000
atom    1   Tr[ns(na)] (up, down, total) =   1.15632  4.96069  6.11701
   spin  1
    eigenvalues: 
  0.169  0.176  0.176  0.318  0.318
    eigenvectors:
  1.000  0.000  0.000  0.000  0.000
  0.000  0.082  0.304  0.027  0.588
  0.000  0.304  0.082  0.588  0.027
  0.000  0.166  0.448  0.205  0.181
  0.000  0.448  0.166  0.181  0.205
    occupations:
  0.169 -0.000 -0.000 -0.000 -0.000
 -0.000  0.263 -0.000  0.036  0.059
 -0.000 -0.000  0.263  0.059 -0.036
 -0.000  0.036  0.059  0.231  0.000
 -0.000  0.059 -0.036  0.000  0.231
   spin  2
    eigenvalues: 
  0.990  0.990  0.993  0.994  0.994
    eigenvectors:
  0.000  0.000  1.000  0.000  0.000
  0.034  0.324  0.000  0.043  0.600
  0.324  0.034  0.000  0.600  0.043
  0.220  0.422  0.000  0.140  0.218
  0.422  0.220  0.000  0.218  0.140
    occupations:
  0.993 -0.000 -0.000 -0.000 -0.000
 -0.000  0.993 -0.000 -0.001 -0.002
 -0.000 -0.000  0.993 -0.002  0.001
 -0.000 -0.001 -0.002  0.991  0.000
 -0.000 -0.002  0.001  0.000  0.991
atomic mag. moment =  -3.80438
atom    2   Tr[ns(na)] (up, down, total) =   1.26090  4.91147  6.17237
   spin  1
    eigenvalues: 
  0.181  0.195  0.195  0.345  0.345
    eigenvectors:
  1.000  0.000  0.000  0.000  0.000
  0.000  0.188  0.074  0.232  0.506
  0.000  0.074  0.188  0.506  0.232
  0.000  0.105  0.633  0.000  0.262
  0.000  0.633  0.105  0.262  0.000
    occupations:
  0.181 -0.000 -0.000 -0.000 -0.000
 -0.000  0.306 -0.000 -0.053  0.038
 -0.000 -0.000  0.306  0.038  0.053
 -0.000 -0.053  0.038  0.234  0.000
 -0.000  0.038  0.053  0.000  0.234
   spin  2
    eigenvalues: 
  0.968  0.968  0.991  0.992  0.992
    eigenvectors:
  0.000  0.000  1.000  0.000  0.000
  0.480  0.171  0.000  0.299  0.050
  0.171  0.480  0.000  0.050  0.299
  0.004  0.345  0.000  0.044  0.607
  0.345  0.004  0.000  0.607  0.044
    occupations:
  0.991 -0.000 -0.000 -0.000 -0.000
 -0.000  0.977 -0.000  0.007 -0.009
 -0.000 -0.000  0.977 -0.009 -0.007
 -0.000  0.007 -0.009  0.984  0.000
 -0.000 -0.009 -0.007  0.000  0.984
atomic mag. moment =  -3.65057
atom    3   Tr[ns(na)] (up, down, total) =   1.28009  4.91718  6.19726
   spin  1
    eigenvalues: 
  0.201  0.201  0.211  0.334  0.334
    eigenvectors:
  0.000  0.000  1.000  0.000  0.000
  0.360  0.248  0.000  0.288  0.104
  0.248  0.360  0.000  0.104  0.288
  0.023  0.369  0.000  0.090  0.518
  0.369  0.023  0.000  0.518  0.090
    occupations:
  0.211 -0.000 -0.000 -0.000 -0.000
 -0.000  0.253 -0.000 -0.052  0.039
 -0.000 -0.000  0.253  0.039  0.052
 -0.000 -0.052  0.039  0.282  0.000
 -0.000  0.039  0.052  0.000  0.282
   spin  2
    eigenvalues: 
  0.972  0.972  0.990  0.991  0.991
    eigenvectors:
  0.000  0.000  1.000  0.000  0.000
  0.456  0.092  0.000  0.339  0.113
  0.092  0.456  0.000  0.113  0.339
  0.042  0.410  0.000  0.023  0.525
  0.410  0.042  0.000  0.525  0.023
    occupations:
  0.990 -0.000 -0.000 -0.000 -0.000
 -0.000  0.981 -0.000  0.006 -0.007
 -0.000 -0.000  0.981 -0.007 -0.006
 -0.000  0.006 -0.007  0.983  0.000
 -0.000 -0.007 -0.006  0.000  0.983
atomic mag. moment =  -3.63709
atom    4   Tr[ns(na)] (up, down, total) =   4.91743  1.28106  6.19848
   spin  1
    eigenvalues: 
  0.973  0.973  0.990  0.991  0.991
    eigenvectors:
  0.000  0.000  1.000  0.000  0.000
  0.010  0.538  0.000  0.050  0.402
  0.538  0.010  0.000  0.402  0.050
  0.190  0.263  0.000  0.127  0.421
  0.263  0.190  0.000  0.421  0.127
    occupations:
  0.990 -0.000 -0.000 -0.000 -0.000
 -0.000  0.981 -0.000 -0.006 -0.007
 -0.000 -0.000  0.981 -0.007  0.006
 -0.000 -0.006 -0.007  0.983  0.000
 -0.000 -0.007  0.006  0.000  0.983
   spin  2
    eigenvalues: 
  0.201  0.201  0.211  0.334  0.334
    eigenvectors:
  0.000  0.000  1.000  0.000  0.000
  0.001  0.607  0.000  0.001  0.391
  0.607  0.001  0.000  0.391  0.001
  0.156  0.236  0.000  0.182  0.426
  0.236  0.156  0.000  0.426  0.182
    occupations:
  0.211 -0.000 -0.000 -0.000 -0.000
 -0.000  0.253 -0.000  0.052  0.038
 -0.000 -0.000  0.253  0.038 -0.052
 -0.000  0.052  0.038  0.282  0.000
 -0.000  0.038 -0.052  0.000  0.282
atomic mag. moment =   3.63637
atom    5   Tr[ns(na)] (up, down, total) =   4.96059  1.15474  6.11532
   spin  1
    eigenvalues: 
  0.990  0.990  0.993  0.994  0.994
    eigenvectors:
  0.000  0.000  1.000  0.000  0.000
  0.349  0.010  0.000  0.427  0.214
  0.010  0.349  0.000  0.214  0.427
  0.130  0.511  0.000  0.000  0.359
  0.511  0.130  0.000  0.359  0.000
    occupations:
  0.993 -0.000 -0.000 -0.000 -0.000
 -0.000  0.993 -0.000  0.001 -0.002
 -0.000 -0.000  0.993 -0.002 -0.001
 -0.000  0.001 -0.002  0.991  0.000
 -0.000 -0.002 -0.001  0.000  0.991
   spin  2
    eigenvalues: 
  0.169  0.175  0.175  0.318  0.318
    eigenvectors:
  1.000  0.000  0.000  0.000  0.000
  0.000  0.367  0.020  0.590  0.023
  0.000  0.020  0.367  0.023  0.590
  0.000  0.060  0.554  0.045  0.341
  0.000  0.554  0.060  0.341  0.045
    occupations:
  0.169 -0.000 -0.000 -0.000 -0.000
 -0.000  0.263 -0.000 -0.036  0.059
 -0.000 -0.000  0.263  0.059  0.036
 -0.000 -0.036  0.059  0.230  0.000
 -0.000  0.059  0.036  0.000  0.230
atomic mag. moment =   3.80585
atom    6   Tr[ns(na)] (up, down, total) =   4.91168  1.26251  6.17419
   spin  1
    eigenvalues: 
  0.968  0.968  0.991  0.992  0.992
    eigenvectors:
  0.000  0.000  1.000  0.000  0.000
  0.009  0.641  0.000  0.071  0.279
  0.641  0.009  0.000  0.279  0.071
  0.179  0.170  0.000  0.124  0.526
  0.170  0.179  0.000  0.526  0.124
    occupations:
  0.991 -0.000 -0.000 -0.000 -0.000
 -0.000  0.977 -0.000 -0.007 -0.009
 -0.000 -0.000  0.977 -0.009  0.007
 -0.000 -0.007 -0.009  0.984  0.000
 -0.000 -0.009  0.007  0.000  0.984
   spin  2
    eigenvalues: 
  0.181  0.196  0.196  0.345  0.345
    eigenvectors:
  1.000  0.000  0.000  0.000  0.000
  0.000  0.004  0.258  0.006  0.733
  0.000  0.258  0.004  0.733  0.006
  0.000  0.173  0.566  0.112  0.150
  0.000  0.566  0.173  0.150  0.112
    occupations:
  0.181 -0.000 -0.000 -0.000 -0.000
 -0.000  0.306 -0.000  0.053  0.038
 -0.000 -0.000  0.306  0.038 -0.053
 -0.000  0.053  0.038  0.235  0.000
 -0.000  0.038 -0.053  0.000  0.235
atomic mag. moment =   3.64916
N of occupied +U levels =   36.974644
 --- exit write_ns ---

     negative rho (up, down):  1.235E-01 1.235E-01
 --- in v_hubbard ---
Hubbard energy   -0.1358
 -------

     total cpu time spent up to now is     1276.7 secs

     total energy              =   -3195.17347079 Ry
     estimated scf accuracy    <       0.00002062 Ry

     total magnetization       =     0.00 Bohr mag/cell
     absolute magnetization    =    27.26 Bohr mag/cell

     iteration #  6     ecut=    35.00 Ry     beta= 0.40
     CG style diagonalization
     ethr =  7.01E-09,  avg # of iterations =  3.3
 --- enter write_ns ---
 LDA+U parameters:
alpha( 3) = -0.05000000
alpha( 4) = -0.05000000
atom    1   Tr[ns(na)] (up, down, total) =   1.15691  4.96058  6.11750
   spin  1
    eigenvalues: 
  0.169  0.176  0.176  0.318  0.318
    eigenvectors:
  1.000  0.000  0.000  0.000  0.000
  0.000  0.082  0.303  0.026  0.588
  0.000  0.303  0.082  0.588  0.026
  0.000  0.166  0.449  0.206  0.180
  0.000  0.449  0.166  0.180  0.206
    occupations:
  0.169 -0.000 -0.000 -0.000 -0.000
 -0.000  0.263 -0.000  0.036  0.059
 -0.000 -0.000  0.263  0.059 -0.036
 -0.000  0.036  0.059  0.231  0.000
 -0.000  0.059 -0.036  0.000  0.231
   spin  2
    eigenvalues: 
  0.990  0.990  0.993  0.994  0.994
    eigenvectors:
  0.000  0.000  1.000  0.000  0.000
  0.032  0.327  0.000  0.041  0.600
  0.327  0.032  0.000  0.600  0.041
  0.219  0.421  0.000  0.140  0.219
  0.421  0.219  0.000  0.219  0.140
    occupations:
  0.993 -0.000 -0.000 -0.000 -0.000
 -0.000  0.993 -0.000 -0.001 -0.002
 -0.000 -0.000  0.993 -0.002  0.001
 -0.000 -0.001 -0.002  0.991  0.000
 -0.000 -0.002  0.001  0.000  0.991
atomic mag. moment =  -3.80367
atom    2   Tr[ns(na)] (up, down, total) =   1.26503  4.91228  6.17731
   spin  1
    eigenvalues: 
  0.182  0.196  0.196  0.346  0.346
    eigenvectors:
  1.000  0.000  0.000  0.000  0.000
  0.000  0.186  0.075  0.230  0.509
  0.000  0.075  0.186  0.509  0.230
  0.000  0.105  0.635  0.000  0.261
  0.000  0.635  0.105  0.261  0.000
    occupations:
  0.182 -0.000 -0.000 -0.000 -0.000
 -0.000  0.307 -0.000 -0.053  0.038
 -0.000 -0.000  0.307  0.038  0.053
 -0.000 -0.053  0.038  0.235  0.000
 -0.000  0.038  0.053  0.000  0.235
   spin  2
    eigenvalues: 
  0.968  0.968  0.991  0.992  0.992
    eigenvectors:
  0.000  0.000  1.000  0.000  0.000
  0.479  0.172  0.000  0.299  0.050
  0.172  0.479  0.000  0.050  0.299
  0.004  0.345  0.000  0.044  0.607
  0.345  0.004  0.000  0.607  0.044
    occupations:
  0.991 -0.000 -0.000 -0.000 -0.000
 -0.000  0.977 -0.000  0.007 -0.009
 -0.000 -0.000  0.977 -0.009 -0.007
 -0.000  0.007 -0.009  0.984  0.000
 -0.000 -0.009 -0.007  0.000  0.984
atomic mag. moment =  -3.64725
atom    3   Tr[ns(na)] (up, down, total) =   1.27625  4.91649  6.19274
   spin  1
    eigenvalues: 
  0.200  0.200  0.210  0.333  0.333
    eigenvectors:
  0.000  0.000  1.000  0.000  0.000
  0.361  0.244  0.000  0.290  0.104
  0.244  0.361  0.000  0.104  0.290
  0.023  0.371  0.000  0.090  0.516
  0.371  0.023  0.000  0.516  0.090
    occupations:
  0.210 -0.000 -0.000 -0.000 -0.000
 -0.000  0.252 -0.000 -0.052  0.039
 -0.000 -0.000  0.252  0.039  0.052
 -0.000 -0.052  0.039  0.281  0.000
 -0.000  0.039  0.052  0.000  0.281
   spin  2
    eigenvalues: 
  0.972  0.972  0.990  0.991  0.991
    eigenvectors:
  0.000  0.000  1.000  0.000  0.000
  0.458  0.091  0.000  0.338  0.113
  0.091  0.458  0.000  0.113  0.338
  0.042  0.409  0.000  0.023  0.526
  0.409  0.042  0.000  0.526  0.023
    occupations:
  0.990 -0.000 -0.000 -0.000 -0.000
 -0.000  0.981 -0.000  0.006 -0.007
 -0.000 -0.000  0.981 -0.007 -0.006
 -0.000  0.006 -0.007  0.982  0.000
 -0.000 -0.007 -0.006  0.000  0.982
atomic mag. moment =  -3.64024
atom    4   Tr[ns(na)] (up, down, total) =   4.91646  1.27620  6.19267
   spin  1
    eigenvalues: 
  0.972  0.972  0.990  0.991  0.991
    eigenvectors:
  0.000  0.000  1.000  0.000  0.000
  0.010  0.540  0.000  0.050  0.400
  0.540  0.010  0.000  0.400  0.050
  0.189  0.261  0.000  0.126  0.423
  0.261  0.189  0.000  0.423  0.126
    occupations:
  0.990 -0.000 -0.000 -0.000 -0.000
 -0.000  0.981 -0.000 -0.006 -0.007
 -0.000 -0.000  0.981 -0.007  0.006
 -0.000 -0.006 -0.007  0.982  0.000
 -0.000 -0.007  0.006  0.000  0.982
   spin  2
    eigenvalues: 
  0.200  0.200  0.210  0.333  0.333
    eigenvectors:
  0.000  0.000  1.000  0.000  0.000
  0.001  0.605  0.000  0.001  0.393
  0.605  0.001  0.000  0.393  0.001
  0.156  0.238  0.000  0.182  0.424
  0.238  0.156  0.000  0.424  0.182
    occupations:
  0.210 -0.000 -0.000 -0.000 -0.000
 -0.000  0.252 -0.000  0.052  0.039
 -0.000 -0.000  0.252  0.039 -0.052
 -0.000  0.052  0.039  0.281  0.000
 -0.000  0.039 -0.052  0.000  0.281
atomic mag. moment =   3.64026
atom    5   Tr[ns(na)] (up, down, total) =   4.96064  1.15891  6.11954
   spin  1
    eigenvalues: 
  0.990  0.990  0.993  0.994  0.994
    eigenvectors:
  0.000  0.000  1.000  0.000  0.000
  0.348  0.011  0.000  0.424  0.217
  0.011  0.348  0.000  0.217  0.424
  0.129  0.512  0.000  0.000  0.359
  0.512  0.129  0.000  0.359  0.000
    occupations:
  0.993 -0.000 -0.000 -0.000 -0.000
 -0.000  0.993 -0.000  0.001 -0.002
 -0.000 -0.000  0.993 -0.002 -0.001
 -0.000  0.001 -0.002  0.991  0.000
 -0.000 -0.002 -0.001  0.000  0.991
   spin  2
    eigenvalues: 
  0.170  0.176  0.176  0.318  0.318
    eigenvectors:
  1.000  0.000  0.000  0.000  0.000
  0.000  0.366  0.019  0.591  0.024
  0.000  0.019  0.366  0.024  0.591
  0.000  0.060  0.555  0.044  0.341
  0.000  0.555  0.060  0.341  0.044
    occupations:
  0.170 -0.000 -0.000 -0.000 -0.000
 -0.000  0.264 -0.000 -0.036  0.059
 -0.000 -0.000  0.264  0.059  0.036
 -0.000 -0.036  0.059  0.231  0.000
 -0.000  0.059  0.036  0.000  0.231
atomic mag. moment =   3.80173
atom    6   Tr[ns(na)] (up, down, total) =   4.91209  1.26417  6.17626
   spin  1
    eigenvalues: 
  0.968  0.968  0.991  0.992  0.992
    eigenvectors:
  0.000  0.000  1.000  0.000  0.000
  0.009  0.642  0.000  0.071  0.279
  0.642  0.009  0.000  0.279  0.071
  0.180  0.169  0.000  0.125  0.526
  0.169  0.180  0.000  0.526  0.125
    occupations:
  0.991 -0.000 -0.000 -0.000 -0.000
 -0.000  0.977 -0.000 -0.007 -0.009
 -0.000 -0.000  0.977 -0.009  0.007
 -0.000 -0.007 -0.009  0.984  0.000
 -0.000 -0.009  0.007  0.000  0.984
   spin  2
    eigenvalues: 
  0.181  0.196  0.196  0.345  0.345
    eigenvectors:
  1.000  0.000  0.000  0.000  0.000
  0.000  0.004  0.257  0.006  0.733
  0.000  0.257  0.004  0.733  0.006
  0.000  0.172  0.568  0.111  0.150
  0.000  0.568  0.172  0.150  0.111
    occupations:
  0.181 -0.000 -0.000 -0.000 -0.000
 -0.000  0.307 -0.000  0.053  0.038
 -0.000 -0.000  0.307  0.038 -0.053
 -0.000  0.053  0.038  0.235  0.000
 -0.000  0.038 -0.053  0.000  0.235
atomic mag. moment =   3.64792
N of occupied +U levels =   36.976012
 --- exit write_ns ---

     negative rho (up, down):  1.235E-01 1.235E-01
 --- in v_hubbard ---
Hubbard energy   -0.1359
 -------

     total cpu time spent up to now is     1395.0 secs

     total energy              =   -3195.17347177 Ry
     estimated scf accuracy    <       0.00005321 Ry

     total magnetization       =    -0.00 Bohr mag/cell
     absolute magnetization    =    27.25 Bohr mag/cell

     iteration #  7     ecut=    35.00 Ry     beta= 0.40
     CG style diagonalization
     ethr =  7.01E-09,  avg # of iterations =  3.1
 --- enter write_ns ---
 LDA+U parameters:
alpha( 3) = -0.05000000
alpha( 4) = -0.05000000
atom    1   Tr[ns(na)] (up, down, total) =   1.15581  4.96064  6.11645
   spin  1
    eigenvalues: 
  0.169  0.175  0.175  0.318  0.318
    eigenvectors:
  1.000  0.000  0.000  0.000  0.000
  0.000  0.082  0.304  0.026  0.588
  0.000  0.304  0.082  0.588  0.026
  0.000  0.166  0.448  0.206  0.180
  0.000  0.448  0.166  0.180  0.206
    occupations:
  0.169 -0.000 -0.000 -0.000 -0.000
 -0.000  0.263 -0.000  0.036  0.059
 -0.000 -0.000  0.263  0.059 -0.036
 -0.000  0.036  0.059  0.230  0.000
 -0.000  0.059 -0.036  0.000  0.230
   spin  2
    eigenvalues: 
  0.990  0.990  0.993  0.994  0.994
    eigenvectors:
  0.000  0.000  1.000  0.000  0.000
  0.033  0.326  0.000  0.042  0.598
  0.326  0.033  0.000  0.598  0.042
  0.220  0.421  0.000  0.140  0.219
  0.421  0.220  0.000  0.219  0.140
    occupations:
  0.993 -0.000 -0.000 -0.000 -0.000
 -0.000  0.993 -0.000 -0.001 -0.002
 -0.000 -0.000  0.993 -0.002  0.001
 -0.000 -0.001 -0.002  0.991  0.000
 -0.000 -0.002  0.001  0.000  0.991
atomic mag. moment =  -3.80483
atom    2   Tr[ns(na)] (up, down, total) =   1.26182  4.91149  6.17331
   spin  1
    eigenvalues: 
  0.181  0.195  0.195  0.345  0.345
    eigenvectors:
  1.000  0.000  0.000  0.000  0.000
  0.000  0.187  0.074  0.233  0.505
  0.000  0.074  0.187  0.505  0.233
  0.000  0.104  0.634  0.000  0.262
  0.000  0.634  0.104  0.262  0.000
    occupations:
  0.181 -0.000 -0.000 -0.000 -0.000
 -0.000  0.306 -0.000 -0.053  0.038
 -0.000 -0.000  0.306  0.038  0.053
 -0.000 -0.053  0.038  0.235  0.000
 -0.000  0.038  0.053  0.000  0.235
   spin  2
    eigenvalues: 
  0.968  0.968  0.991  0.992  0.992
    eigenvectors:
  0.000  0.000  1.000  0.000  0.000
  0.481  0.170  0.000  0.299  0.050
  0.170  0.481  0.000  0.050  0.299
  0.005  0.345  0.000  0.044  0.607
  0.345  0.005  0.000  0.607  0.044
    occupations:
  0.991 -0.000 -0.000 -0.000 -0.000
 -0.000  0.977 -0.000  0.007 -0.009
 -0.000 -0.000  0.977 -0.009 -0.007
 -0.000  0.007 -0.009  0.984  0.000
 -0.000 -0.009 -0.007  0.000  0.984
atomic mag. moment =  -3.64966
atom    3   Tr[ns(na)] (up, down, total) =   1.28124  4.91732  6.19856
   spin  1
    eigenvalues: 
  0.201  0.201  0.211  0.334  0.334
    eigenvectors:
  0.000  0.000  1.000  0.000  0.000
  0.359  0.249  0.000  0.287  0.104
  0.249  0.359  0.000  0.104  0.287
  0.023  0.368  0.000  0.090  0.518
  0.368  0.023  0.000  0.518  0.090
    occupations:
  0.211 -0.000 -0.000 -0.000 -0.000
 -0.000  0.253 -0.000 -0.052  0.038
 -0.000 -0.000  0.253  0.038  0.052
 -0.000 -0.052  0.038  0.282  0.000
 -0.000  0.038  0.052  0.000  0.282
   spin  2
    eigenvalues: 
  0.973  0.973  0.990  0.991  0.991
    eigenvectors:
  0.000  0.000  1.000  0.000  0.000
  0.456  0.092  0.000  0.339  0.114
  0.092  0.456  0.000  0.114  0.339
  0.042  0.410  0.000  0.023  0.525
  0.410  0.042  0.000  0.525  0.023
    occupations:
  0.990 -0.000 -0.000 -0.000 -0.000
 -0.000  0.981 -0.000  0.006 -0.007
 -0.000 -0.000  0.981 -0.007 -0.006
 -0.000  0.006 -0.007  0.983  0.000
 -0.000 -0.007 -0.006  0.000  0.983
atomic mag. moment =  -3.63608
atom    4   Tr[ns(na)] (up, down, total) =   4.91712  1.27997  6.19709
   spin  1
    eigenvalues: 
  0.972  0.972  0.990  0.991  0.991
    eigenvectors:
  0.000  0.000  1.000  0.000  0.000
  0.010  0.538  0.000  0.050  0.402
  0.538  0.010  0.000  0.402  0.050
  0.189  0.262  0.000  0.126  0.422
  0.262  0.189  0.000  0.422  0.126
    occupations:
  0.990 -0.000 -0.000 -0.000 -0.000
 -0.000  0.981 -0.000 -0.006 -0.007
 -0.000 -0.000  0.981 -0.007  0.006
 -0.000 -0.006 -0.007  0.983  0.000
 -0.000 -0.007  0.006  0.000  0.983
   spin  2
    eigenvalues: 
  0.201  0.201  0.211  0.334  0.334
    eigenvectors:
  0.000  0.000  1.000  0.000  0.000
  0.001  0.606  0.000  0.001  0.391
  0.606  0.001  0.000  0.391  0.001
  0.156  0.236  0.000  0.182  0.426
  0.236  0.156  0.000  0.426  0.182
    occupations:
  0.211 -0.000 -0.000 -0.000 -0.000
 -0.000  0.253 -0.000  0.052  0.038
 -0.000 -0.000  0.253  0.038 -0.052
 -0.000  0.052  0.038  0.282  0.000
 -0.000  0.038 -0.052  0.000  0.282
atomic mag. moment =   3.63715
atom    5   Tr[ns(na)] (up, down, total) =   4.96058  1.15724  6.11782
   spin  1
    eigenvalues: 
  0.990  0.990  0.993  0.994  0.994
    eigenvectors:
  0.000  0.000  1.000  0.000  0.000
  0.350  0.011  0.000  0.425  0.214
  0.011  0.350  0.000  0.214  0.425
  0.129  0.510  0.000  0.000  0.361
  0.510  0.129  0.000  0.361  0.000
    occupations:
  0.993 -0.000 -0.000 -0.000 -0.000
 -0.000  0.993 -0.000  0.001 -0.002
 -0.000 -0.000  0.993 -0.002 -0.001
 -0.000  0.001 -0.002  0.991  0.000
 -0.000 -0.002 -0.001  0.000  0.991
   spin  2
    eigenvalues: 
  0.169  0.176  0.176  0.318  0.318
    eigenvectors:
  1.000  0.000  0.000  0.000  0.000
  0.000  0.367  0.019  0.591  0.023
  0.000  0.019  0.367  0.023  0.591
  0.000  0.060  0.554  0.045  0.341
  0.000  0.554  0.060  0.341  0.045
    occupations:
  0.169 -0.000 -0.000 -0.000 -0.000
 -0.000  0.263 -0.000 -0.036  0.059
 -0.000 -0.000  0.263  0.059  0.036
 -0.000 -0.036  0.059  0.231  0.000
 -0.000  0.059  0.036  0.000  0.231
atomic mag. moment =   3.80333
atom    6   Tr[ns(na)] (up, down, total) =   4.91120  1.26137  6.17257
   spin  1
    eigenvalues: 
  0.968  0.968  0.991  0.992  0.992
    eigenvectors:
  0.000  0.000  1.000  0.000  0.000
  0.009  0.641  0.000  0.071  0.279
  0.641  0.009  0.000  0.279  0.071
  0.180  0.170  0.000  0.124  0.526
  0.170  0.180  0.000  0.526  0.124
    occupations:
  0.991 -0.000 -0.000 -0.000 -0.000
 -0.000  0.976 -0.000 -0.007 -0.009
 -0.000 -0.000  0.976 -0.009  0.007
 -0.000 -0.007 -0.009  0.984  0.000
 -0.000 -0.009  0.007  0.000  0.984
   spin  2
    eigenvalues: 
  0.181  0.195  0.195  0.345  0.345
    eigenvectors:
  1.000  0.000  0.000  0.000  0.000
  0.000  0.004  0.258  0.006  0.732
  0.000  0.258  0.004  0.732  0.006
  0.000  0.173  0.565  0.112  0.150
  0.000  0.565  0.173  0.150  0.112
    occupations:
  0.181 -0.000 -0.000 -0.000 -0.000
 -0.000  0.306 -0.000  0.053  0.038
 -0.000 -0.000  0.306  0.038 -0.053
 -0.000  0.053  0.038  0.235  0.000
 -0.000  0.038 -0.053  0.000  0.235
atomic mag. moment =   3.64983
N of occupied +U levels =   36.975803
 --- exit write_ns ---

     negative rho (up, down):  1.235E-01 1.235E-01
 --- in v_hubbard ---
Hubbard energy   -0.1359
 -------

     total cpu time spent up to now is     1509.3 secs

     total energy              =   -3195.17347580 Ry
     estimated scf accuracy    <       0.00001707 Ry

     total magnetization       =    -0.00 Bohr mag/cell
     absolute magnetization    =    27.26 Bohr mag/cell

     iteration #  8     ecut=    35.00 Ry     beta= 0.40
     CG style diagonalization
     ethr =  5.81E-09,  avg # of iterations =  3.0
 --- enter write_ns ---
 LDA+U parameters:
alpha( 3) = -0.05000000
alpha( 4) = -0.05000000
atom    1   Tr[ns(na)] (up, down, total) =   1.15689  4.96062  6.11751
   spin  1
    eigenvalues: 
  0.169  0.176  0.176  0.318  0.318
    eigenvectors:
  1.000  0.000  0.000  0.000  0.000
  0.000  0.082  0.303  0.026  0.588
  0.000  0.303  0.082  0.588  0.026
  0.000  0.166  0.448  0.205  0.180
  0.000  0.448  0.166  0.180  0.205
    occupations:
  0.169 -0.000 -0.000 -0.000 -0.000
 -0.000  0.263 -0.000  0.036  0.059
 -0.000 -0.000  0.263  0.059 -0.036
 -0.000  0.036  0.059  0.231  0.000
 -0.000  0.059 -0.036  0.000  0.231
   spin  2
    eigenvalues: 
  0.990  0.990  0.993  0.994  0.994
    eigenvectors:
  0.000  0.000  1.000  0.000  0.000
  0.033  0.326  0.000  0.042  0.599
  0.326  0.033  0.000  0.599  0.042
  0.220  0.421  0.000  0.140  0.219
  0.421  0.220  0.000  0.219  0.140
    occupations:
  0.993 -0.000 -0.000 -0.000 -0.000
 -0.000  0.993 -0.000 -0.001 -0.002
 -0.000 -0.000  0.993 -0.002  0.001
 -0.000 -0.001 -0.002  0.991  0.000
 -0.000 -0.002  0.001  0.000  0.991
atomic mag. moment =  -3.80373
atom    2   Tr[ns(na)] (up, down, total) =   1.26307  4.91165  6.17473
   spin  1
    eigenvalues: 
  0.181  0.196  0.196  0.345  0.345
    eigenvectors:
  1.000  0.000  0.000  0.000  0.000
  0.000  0.186  0.075  0.232  0.507
  0.000  0.075  0.186  0.507  0.232
  0.000  0.105  0.634  0.000  0.261
  0.000  0.634  0.105  0.261  0.000
    occupations:
  0.181 -0.000 -0.000 -0.000 -0.000
 -0.000  0.306 -0.000 -0.053  0.038
 -0.000 -0.000  0.306  0.038  0.053
 -0.000 -0.053  0.038  0.235  0.000
 -0.000  0.038  0.053  0.000  0.235
   spin  2
    eigenvalues: 
  0.968  0.968  0.991  0.992  0.992
    eigenvectors:
  0.000  0.000  1.000  0.000  0.000
  0.479  0.172  0.000  0.299  0.050
  0.172  0.479  0.000  0.050  0.299
  0.004  0.345  0.000  0.044  0.607
  0.345  0.004  0.000  0.607  0.044
    occupations:
  0.991 -0.000 -0.000 -0.000 -0.000
 -0.000  0.977 -0.000  0.007 -0.009
 -0.000 -0.000  0.977 -0.009 -0.007
 -0.000  0.007 -0.009  0.984  0.000
 -0.000 -0.009 -0.007  0.000  0.984
atomic mag. moment =  -3.64858
atom    3   Tr[ns(na)] (up, down, total) =   1.27919  4.91682  6.19602
   spin  1
    eigenvalues: 
  0.201  0.201  0.211  0.334  0.334
    eigenvectors:
  0.000  0.000  1.000  0.000  0.000
  0.360  0.247  0.000  0.288  0.104
  0.247  0.360  0.000  0.104  0.288
  0.023  0.369  0.000  0.090  0.517
  0.369  0.023  0.000  0.517  0.090
    occupations:
  0.211 -0.000 -0.000 -0.000 -0.000
 -0.000  0.253 -0.000 -0.052  0.039
 -0.000 -0.000  0.253  0.039  0.052
 -0.000 -0.052  0.039  0.281  0.000
 -0.000  0.039  0.052  0.000  0.281
   spin  2
    eigenvalues: 
  0.972  0.972  0.990  0.991  0.991
    eigenvectors:
  0.000  0.000  1.000  0.000  0.000
  0.457  0.092  0.000  0.338  0.113
  0.092  0.457  0.000  0.113  0.338
  0.042  0.409  0.000  0.023  0.526
  0.409  0.042  0.000  0.526  0.023
    occupations:
  0.990 -0.000 -0.000 -0.000 -0.000
 -0.000  0.981 -0.000  0.006 -0.007
 -0.000 -0.000  0.981 -0.007 -0.006
 -0.000  0.006 -0.007  0.983  0.000
 -0.000 -0.007 -0.006  0.000  0.983
atomic mag. moment =  -3.63763
atom    4   Tr[ns(na)] (up, down, total) =   4.91689  1.27937  6.19627
   spin  1
    eigenvalues: 
  0.972  0.972  0.990  0.991  0.991
    eigenvectors:
  0.000  0.000  1.000  0.000  0.000
  0.010  0.539  0.000  0.050  0.401
  0.539  0.010  0.000  0.401  0.050
  0.189  0.262  0.000  0.126  0.423
  0.262  0.189  0.000  0.423  0.126
    occupations:
  0.990 -0.000 -0.000 -0.000 -0.000
 -0.000  0.981 -0.000 -0.006 -0.007
 -0.000 -0.000  0.981 -0.007  0.006
 -0.000 -0.006 -0.007  0.983  0.000
 -0.000 -0.007  0.006  0.000  0.983
   spin  2
    eigenvalues: 
  0.201  0.201  0.211  0.334  0.334
    eigenvectors:
  0.000  0.000  1.000  0.000  0.000
  0.001  0.606  0.000  0.001  0.391
  0.606  0.001  0.000  0.391  0.001
  0.156  0.237  0.000  0.182  0.425
  0.237  0.156  0.000  0.425  0.182
    occupations:
  0.211 -0.000 -0.000 -0.000 -0.000
 -0.000  0.253 -0.000  0.052  0.039
 -0.000 -0.000  0.253  0.039 -0.052
 -0.000  0.052  0.039  0.281  0.000
 -0.000  0.039 -0.052  0.000  0.281
atomic mag. moment =   3.63752
atom    5   Tr[ns(na)] (up, down, total) =   4.96050  1.15541  6.11591
   spin  1
    eigenvalues: 
  0.990  0.990  0.993  0.994  0.994
    eigenvectors:
  0.000  0.000  1.000  0.000  0.000
  0.350  0.011  0.000  0.425  0.214
  0.011  0.350  0.000  0.214  0.425
  0.129  0.511  0.000  0.000  0.360
  0.511  0.129  0.000  0.360  0.000
    occupations:
  0.993 -0.000 -0.000 -0.000 -0.000
 -0.000  0.993 -0.000  0.001 -0.002
 -0.000 -0.000  0.993 -0.002 -0.001
 -0.000  0.001 -0.002  0.991  0.000
 -0.000 -0.002 -0.001  0.000  0.991
   spin  2
    eigenvalues: 
  0.169  0.175  0.175  0.318  0.318
    eigenvectors:
  1.000  0.000  0.000  0.000  0.000
  0.000  0.366  0.019  0.591  0.023
  0.000  0.019  0.366  0.023  0.591
  0.000  0.060  0.554  0.045  0.340
  0.000  0.554  0.060  0.340  0.045
    occupations:
  0.169 -0.000 -0.000 -0.000 -0.000
 -0.000  0.263 -0.000 -0.036  0.059
 -0.000 -0.000  0.263  0.059  0.036
 -0.000 -0.036  0.059  0.230  0.000
 -0.000  0.059  0.036  0.000  0.230
atomic mag. moment =   3.80510
atom    6   Tr[ns(na)] (up, down, total) =   4.91170  1.26363  6.17533
   spin  1
    eigenvalues: 
  0.968  0.968  0.991  0.992  0.992
    eigenvectors:
  0.000  0.000  1.000  0.000  0.000
  0.009  0.641  0.000  0.070  0.279
  0.641  0.009  0.000  0.279  0.070
  0.179  0.170  0.000  0.125  0.526
  0.170  0.179  0.000  0.526  0.125
    occupations:
  0.991 -0.000 -0.000 -0.000 -0.000
 -0.000  0.977 -0.000 -0.007 -0.009
 -0.000 -0.000  0.977 -0.009  0.007
 -0.000 -0.007 -0.009  0.984  0.000
 -0.000 -0.009  0.007  0.000  0.984
   spin  2
    eigenvalues: 
  0.181  0.196  0.196  0.345  0.345
    eigenvectors:
  1.000  0.000  0.000  0.000  0.000
  0.000  0.004  0.257  0.006  0.733
  0.000  0.257  0.004  0.733  0.006
  0.000  0.172  0.567  0.111  0.150
  0.000  0.567  0.172  0.150  0.111
    occupations:
  0.181 -0.000 -0.000 -0.000 -0.000
 -0.000  0.306 -0.000  0.053  0.038
 -0.000 -0.000  0.306  0.038 -0.053
 -0.000  0.053  0.038  0.235  0.000
 -0.000  0.038 -0.053  0.000  0.235
atomic mag. moment =   3.64808
N of occupied +U levels =   36.975757
 --- exit write_ns ---

     negative rho (up, down):  1.235E-01 1.235E-01
 --- in v_hubbard ---
Hubbard energy   -0.1359
 -------

     total cpu time spent up to now is     1617.6 secs

     total energy              =   -3195.17347703 Ry
     estimated scf accuracy    <       0.00000534 Ry

     total magnetization       =     0.00 Bohr mag/cell
     absolute magnetization    =    27.25 Bohr mag/cell

     iteration #  9     ecut=    35.00 Ry     beta= 0.40
     CG style diagonalization
     ethr =  1.81E-09,  avg # of iterations =  3.0
 --- enter write_ns ---
 LDA+U parameters:
alpha( 3) = -0.05000000
alpha( 4) = -0.05000000
atom    1   Tr[ns(na)] (up, down, total) =   1.15622  4.96059  6.11682
   spin  1
    eigenvalues: 
  0.169  0.176  0.176  0.318  0.318
    eigenvectors:
  1.000  0.000  0.000  0.000  0.000
  0.000  0.082  0.303  0.026  0.588
  0.000  0.303  0.082  0.588  0.026
  0.000  0.166  0.448  0.205  0.180
  0.000  0.448  0.166  0.180  0.205
    occupations:
  0.169 -0.000 -0.000 -0.000 -0.000
 -0.000  0.263 -0.000  0.036  0.059
 -0.000 -0.000  0.263  0.059 -0.036
 -0.000  0.036  0.059  0.231  0.000
 -0.000  0.059 -0.036  0.000  0.231
   spin  2
    eigenvalues: 
  0.990  0.990  0.993  0.994  0.994
    eigenvectors:
  0.000  0.000  1.000  0.000  0.000
  0.033  0.326  0.000  0.042  0.599
  0.326  0.033  0.000  0.599  0.042
  0.219  0.421  0.000  0.140  0.219
  0.421  0.219  0.000  0.219  0.140
    occupations:
  0.993 -0.000 -0.000 -0.000 -0.000
 -0.000  0.993 -0.000 -0.001 -0.002
 -0.000 -0.000  0.993 -0.002  0.001
 -0.000 -0.001 -0.002  0.991  0.000
 -0.000 -0.002  0.001  0.000  0.991
atomic mag. moment =  -3.80437
atom    2   Tr[ns(na)] (up, down, total) =   1.26261  4.91155  6.17416
   spin  1
    eigenvalues: 
  0.181  0.196  0.196  0.345  0.345
    eigenvectors:
  1.000  0.000  0.000  0.000  0.000
  0.000  0.187  0.075  0.232  0.507
  0.000  0.075  0.187  0.507  0.232
  0.000  0.104  0.634  0.000  0.261
  0.000  0.634  0.104  0.261  0.000
    occupations:
  0.181 -0.000 -0.000 -0.000 -0.000
 -0.000  0.306 -0.000 -0.053  0.038
 -0.000 -0.000  0.306  0.038  0.053
 -0.000 -0.053  0.038  0.235  0.000
 -0.000  0.038  0.053  0.000  0.235
   spin  2
    eigenvalues: 
  0.968  0.968  0.991  0.992  0.992
    eigenvectors:
  0.000  0.000  1.000  0.000  0.000
  0.479  0.172  0.000  0.299  0.050
  0.172  0.479  0.000  0.050  0.299
  0.004  0.345  0.000  0.044  0.607
  0.345  0.004  0.000  0.607  0.044
    occupations:
  0.991 -0.000 -0.000 -0.000 -0.000
 -0.000  0.977 -0.000  0.007 -0.009
 -0.000 -0.000  0.977 -0.009 -0.007
 -0.000  0.007 -0.009  0.984  0.000
 -0.000 -0.009 -0.007  0.000  0.984
atomic mag. moment =  -3.64895
atom    3   Tr[ns(na)] (up, down, total) =   1.27952  4.91688  6.19641
   spin  1
    eigenvalues: 
  0.201  0.201  0.211  0.334  0.334
    eigenvectors:
  0.000  0.000  1.000  0.000  0.000
  0.361  0.247  0.000  0.288  0.104
  0.247  0.361  0.000  0.104  0.288
  0.023  0.369  0.000  0.090  0.518
  0.369  0.023  0.000  0.518  0.090
    occupations:
  0.211 -0.000 -0.000 -0.000 -0.000
 -0.000  0.253 -0.000 -0.052  0.039
 -0.000 -0.000  0.253  0.039  0.052
 -0.000 -0.052  0.039  0.282  0.000
 -0.000  0.039  0.052  0.000  0.282
   spin  2
    eigenvalues: 
  0.972  0.972  0.990  0.991  0.991
    eigenvectors:
  0.000  0.000  1.000  0.000  0.000
  0.457  0.091  0.000  0.339  0.113
  0.091  0.457  0.000  0.113  0.339
  0.042  0.409  0.000  0.023  0.525
  0.409  0.042  0.000  0.525  0.023
    occupations:
  0.990 -0.000 -0.000 -0.000 -0.000
 -0.000  0.981 -0.000  0.006 -0.007
 -0.000 -0.000  0.981 -0.007 -0.006
 -0.000  0.006 -0.007  0.983  0.000
 -0.000 -0.007 -0.006  0.000  0.983
atomic mag. moment =  -3.63736
atom    4   Tr[ns(na)] (up, down, total) =   4.91689  1.27936  6.19625
   spin  1
    eigenvalues: 
  0.972  0.972  0.990  0.991  0.991
    eigenvectors:
  0.000  0.000  1.000  0.000  0.000
  0.010  0.539  0.000  0.050  0.401
  0.539  0.010  0.000  0.401  0.050
  0.189  0.262  0.000  0.126  0.423
  0.262  0.189  0.000  0.423  0.126
[...]
     atom:   29    charge:    5.2907    magn:    0.2048    constr:    0.0000
     atom:   30    charge:    5.2907    magn:    0.2048    constr:    0.0000

     total cpu time spent up to now is     1952.5 secs

     End of self-consistent calculation

 ------ SPIN UP ------------


          k = 0.0000 0.0000 0.0000 (  8497 PWs)   bands (ev):

   -78.4328 -78.1207 -77.9973 -73.4489 -73.3635 -73.2688 -44.4521 -44.3999
   -44.3999 -44.1161 -44.1161 -44.1070 -44.1013 -43.9392 -43.9392 -39.6004
   -39.5580 -39.5580 -39.5065 -39.4779 -39.4778 -39.4483 -39.3755 -39.3755
   -10.7282 -10.7282 -10.7050 -10.7050 -10.6900 -10.6775 -10.6608 -10.6608
   -10.6457 -10.6457 -10.6383 -10.6383 -10.6168 -10.6168 -10.5913 -10.5808
   -10.5700 -10.5700 -10.5609 -10.5609 -10.5445 -10.5445 -10.5389 -10.5317
   -10.5317 -10.5274 -10.5069 -10.5069 -10.4955 -10.4955  -7.3930  -7.0039
    -6.8687  -6.0548  -5.9735  -5.6081  -5.6079  -5.5084  -5.5083  -5.4421
    -5.4421  -5.4124  -5.3164  -5.3163  -5.1139  -5.1138  -4.9577  -4.9576
     1.5695   1.6858   1.7170   2.4079   2.5320   3.3095   5.3949   5.3949
     5.4833   5.9307   5.9307   6.0188   6.0567   6.0567   6.2403   6.2922
     6.2922   6.5047   6.5382   6.5382   6.5416   6.6929   6.6930   6.8567
     6.8568   6.9930   7.1214   7.2464   7.2464   7.6290   7.6290   7.6594
     7.8112   8.1637   8.1638   8.4001   8.5040   8.5041   8.6819   8.6819
     8.9090   9.0898   9.0899   9.1476   9.2499   9.2499   9.3203   9.4300
     9.4301   9.4394   9.5515   9.5515   9.7113   9.7114  10.0133  10.0134
    10.0595  10.0596  10.0804  10.1246  10.1246  10.4892  10.4893  10.6258
    10.8359  10.9705  11.0576  11.0576  11.1413  11.1689  11.2822  11.8947
    11.8947  12.6432  12.6433  12.9131  12.9131  13.0927  13.1743  13.1809
    13.1809  13.2128  13.3553  13.3553  14.2255  14.2255  14.9793  14.9793
    15.5036  15.6167  15.6168  15.7161  15.7766  15.9046  17.1243  17.1243
    17.1489  17.1490  17.2498  17.2498  17.5303  17.5946  17.6641  17.6641
    17.7219  17.7219  18.1370  18.1370  19.5859  20.5906  21.1380  21.2626
    21.5311  21.5311  22.0624  22.2003  22.5644  22.5644  22.6482  22.6483
    22.7671  22.7672  23.9837  23.9837  24.0512  24.0513  24.1648  24.3931

     occupation numbers 
     1.0000   1.0000   1.0000   1.0000   1.0000   1.0000   1.0000   1.0000
     1.0000   1.0000   1.0000   1.0000   1.0000   1.0000   1.0000   1.0000
     1.0000   1.0000   1.0000   1.0000   1.0000   1.0000   1.0000   1.0000
     1.0000   1.0000   1.0000   1.0000   1.0000   1.0000   1.0000   1.0000
     1.0000   1.0000   1.0000   1.0000   1.0000   1.0000   1.0000   1.0000
     1.0000   1.0000   1.0000   1.0000   1.0000   1.0000   1.0000   1.0000
     1.0000   1.0000   1.0000   1.0000   1.0000   1.0000   1.0000   1.0000
     1.0000   1.0000   1.0000   1.0000   1.0000   1.0000   1.0000   1.0000
     1.0000   1.0000   1.0000   1.0000   1.0000   1.0000   1.0000   1.0000
     1.0000   1.0000   1.0000   1.0000   1.0000   1.0000   1.0000   1.0000
     1.0000   1.0000   1.0000   1.0000   1.0000   1.0000   1.0000   1.0000
     1.0000   1.0000   1.0000   1.0000   1.0000   1.0000   1.0000   1.0000
     1.0000   1.0000   1.0000   1.0000   1.0000   1.0000   1.0000   1.0000
     1.0000   1.0000   1.0000   1.0000   1.0000   1.0000   1.0000   1.0000
     1.0000   1.0000   1.0000   1.0000   1.0000   1.0000   1.0000   1.0000
     1.0000   1.0000   1.0000   1.0000   1.0000   1.0000   1.0000   1.0000
     1.0000   1.0000   1.0000   1.0000   1.0000   1.0000   1.0000   1.0000
     1.0000   1.0000   1.0000   1.0000   1.0000   1.0000   1.0000   1.0000
     1.0000   1.0177   1.0177  -0.0291  -0.0291  -0.0021  -0.0001  -0.0001
    -0.0001  -0.0000  -0.0000  -0.0000  -0.0000  -0.0000  -0.0000  -0.0000
    -0.0000  -0.0000  -0.0000  -0.0000  -0.0000  -0.0000  -0.0000  -0.0000
    -0.0000  -0.0000  -0.0000  -0.0000  -0.0000  -0.0000  -0.0000  -0.0000
    -0.0000  -0.0000  -0.0000  -0.0000  -0.0000  -0.0000  -0.0000  -0.0000
    -0.0000  -0.0000  -0.0000  -0.0000  -0.0000  -0.0000  -0.0000  -0.0000
    -0.0000  -0.0000  -0.0000  -0.0000  -0.0000  -0.0000  -0.0000  -0.0000

          k = 0.0000-0.5774 0.0000 (  8560 PWs)   bands (ev):

   -78.4328 -78.1207 -77.9973 -73.4489 -73.3635 -73.2688 -44.4521 -44.4000
   -44.3999 -44.1162 -44.1162 -44.1069 -44.1012 -43.9393 -43.9393 -39.6003
   -39.5581 -39.5580 -39.5065 -39.4779 -39.4779 -39.4482 -39.3756 -39.3756
   -10.7247 -10.7055 -10.6931 -10.6879 -10.6827 -10.6760 -10.6588 -10.6438
   -10.6386 -10.6338 -10.6255 -10.6242 -10.6193 -10.6160 -10.5898 -10.5802
   -10.5748 -10.5701 -10.5633 -10.5621 -10.5597 -10.5521 -10.5478 -10.5360
   -10.5351 -10.5246 -10.5228 -10.5126 -10.5101 -10.4987  -6.6852  -6.6522
    -6.4892  -6.2860  -6.2378  -5.8978  -5.8136  -5.7543  -5.6381  -5.5711
    -5.5092  -5.4881  -5.4108  -5.3453  -5.2196  -5.1627  -5.0578  -4.9833
     1.5043   1.7592   1.8024   2.0563   2.1323   2.3059   5.5730   5.8502
     5.8702   6.0113   6.1984   6.2450   6.3219   6.3658   6.3882   6.5645
     6.6049   6.6681   6.7915   6.8376   7.0789   7.1058   7.1785   7.2967
     7.3424   7.4717   7.5572   7.5961   7.7377   7.8421   7.8617   7.9750
     8.0298   8.1765   8.2157   8.3328   8.3523   8.3658   8.4952   8.5606
     8.7207   8.7932   8.8798   8.9948   9.0339   9.1154   9.1493   9.2336
     9.2612   9.3621   9.4325   9.5276   9.6347   9.7339   9.8161   9.8403
     9.8633   9.9523   9.9826  10.0915  10.1651  10.2585  10.2968  10.5079
    10.7003  10.7699  10.9845  11.0688  11.1733  11.3562  11.5387  11.8454
    11.8744  11.9454  12.5671  12.8870  13.0148  13.0899  13.1714  13.2122
    13.2964  13.3399  13.5038  13.6224  14.2388  14.2855  14.4914  14.7730
    14.8238  15.1973  15.3871  15.6817  15.7494  15.8663  15.9483  16.0061
    16.1094  16.1553  16.2442  16.9744  17.1289  17.2539  17.3233  17.3940
    17.4727  17.5348  17.6188  17.6947  21.3695  21.5750  21.8630  22.2668
    22.4405  22.5449  22.9160  22.9740  23.0525  23.1921  23.3113  23.3421
    23.4248  23.4602  23.9392  23.9660  24.1508  24.1804  24.3197  24.4318

     occupation numbers 
     1.0000   1.0000   1.0000   1.0000   1.0000   1.0000   1.0000   1.0000
     1.0000   1.0000   1.0000   1.0000   1.0000   1.0000   1.0000   1.0000
     1.0000   1.0000   1.0000   1.0000   1.0000   1.0000   1.0000   1.0000
     1.0000   1.0000   1.0000   1.0000   1.0000   1.0000   1.0000   1.0000
     1.0000   1.0000   1.0000   1.0000   1.0000   1.0000   1.0000   1.0000
     1.0000   1.0000   1.0000   1.0000   1.0000   1.0000   1.0000   1.0000
     1.0000   1.0000   1.0000   1.0000   1.0000   1.0000   1.0000   1.0000
     1.0000   1.0000   1.0000   1.0000   1.0000   1.0000   1.0000   1.0000
     1.0000   1.0000   1.0000   1.0000   1.0000   1.0000   1.0000   1.0000
     1.0000   1.0000   1.0000   1.0000   1.0000   1.0000   1.0000   1.0000
     1.0000   1.0000   1.0000   1.0000   1.0000   1.0000   1.0000   1.0000
     1.0000   1.0000   1.0000   1.0000   1.0000   1.0000   1.0000   1.0000
     1.0000   1.0000   1.0000   1.0000   1.0000   1.0000   1.0000   1.0000
     1.0000   1.0000   1.0000   1.0000   1.0000   1.0000   1.0000   1.0000
     1.0000   1.0000   1.0000   1.0000   1.0000   1.0000   1.0000   1.0000
     1.0000   1.0000   1.0000   1.0000   1.0000   1.0000   1.0000   1.0000
     1.0000   1.0000   1.0000   1.0000   1.0000   1.0000   1.0000   1.0000
     1.0000   1.0000   1.0000   1.0000   1.0000   1.0000   1.0000   1.0000
     1.0000   1.0000   1.0277  -0.0021  -0.0148  -0.0023  -0.0001  -0.0000
    -0.0000  -0.0000  -0.0000  -0.0000  -0.0000  -0.0000  -0.0000  -0.0000
    -0.0000  -0.0000  -0.0000  -0.0000  -0.0000  -0.0000  -0.0000  -0.0000
    -0.0000  -0.0000  -0.0000  -0.0000  -0.0000  -0.0000  -0.0000  -0.0000
    -0.0000  -0.0000  -0.0000  -0.0000  -0.0000  -0.0000  -0.0000  -0.0000
    -0.0000  -0.0000  -0.0000  -0.0000  -0.0000  -0.0000  -0.0000  -0.0000
    -0.0000  -0.0000  -0.0000  -0.0000  -0.0000  -0.0000  -0.0000  -0.0000

 ------ SPIN DOWN ----------


          k = 0.0000 0.0000 0.0000 (  8497 PWs)   bands (ev):

   -78.4330 -78.1206 -77.9974 -73.4488 -73.3637 -73.2687 -44.4526 -44.4001
   -44.4001 -44.1161 -44.1161 -44.1071 -44.1013 -43.9393 -43.9393 -39.6002
   -39.5579 -39.5579 -39.5066 -39.4780 -39.4780 -39.4481 -39.3754 -39.3754
   -10.7281 -10.7281 -10.7050 -10.7050 -10.6900 -10.6776 -10.6608 -10.6608
   -10.6456 -10.6456 -10.6384 -10.6384 -10.6167 -10.6167 -10.5915 -10.5806
   -10.5700 -10.5700 -10.5609 -10.5609 -10.5446 -10.5446 -10.5391 -10.5316
   -10.5316 -10.5272 -10.5071 -10.5071 -10.4954 -10.4954  -7.3932  -7.0039
    -6.8686  -6.0548  -5.9735  -5.6082  -5.6080  -5.5085  -5.5084  -5.4422
    -5.4422  -5.4124  -5.3167  -5.3165  -5.1137  -5.1137  -4.9574  -4.9573
     1.5696   1.6858   1.7170   2.4079   2.5319   3.3095   5.3946   5.3946
     5.4831   5.9305   5.9306   6.0187   6.0567   6.0567   6.2404   6.2920
     6.2920   6.5046   6.5381   6.5381   6.5414   6.6926   6.6927   6.8569
     6.8570   6.9931   7.1214   7.2465   7.2465   7.6289   7.6289   7.6595
     7.8115   8.1638   8.1639   8.4000   8.5040   8.5040   8.6817   8.6817
     8.9089   9.0898   9.0899   9.1474   9.2499   9.2499   9.3203   9.4302
     9.4302   9.4394   9.5515   9.5516   9.7115   9.7115  10.0133  10.0134
    10.0595  10.0596  10.0806  10.1246  10.1247  10.4893  10.4893  10.6260
    10.8358  10.9705  11.0578  11.0578  11.1412  11.1688  11.2822  11.8949
    11.8949  12.6433  12.6434  12.9130  12.9130  13.0925  13.1743  13.1808
    13.1808  13.2128  13.3552  13.3552  14.2253  14.2253  14.9790  14.9791
    15.5036  15.6165  15.6165  15.7157  15.7768  15.9046  17.1245  17.1245
    17.1491  17.1492  17.2494  17.2494  17.5303  17.5946  17.6641  17.6641
    17.7219  17.7219  18.1369  18.1369  19.5865  20.5905  21.1383  21.2622
    21.5312  21.5312  22.0623  22.2001  22.5646  22.5646  22.6483  22.6483
    22.7669  22.7670  23.9836  23.9837  24.0513  24.0513  24.1646  24.3941

     occupation numbers 
     1.0000   1.0000   1.0000   1.0000   1.0000   1.0000   1.0000   1.0000
     1.0000   1.0000   1.0000   1.0000   1.0000   1.0000   1.0000   1.0000
     1.0000   1.0000   1.0000   1.0000   1.0000   1.0000   1.0000   1.0000
     1.0000   1.0000   1.0000   1.0000   1.0000   1.0000   1.0000   1.0000
     1.0000   1.0000   1.0000   1.0000   1.0000   1.0000   1.0000   1.0000
     1.0000   1.0000   1.0000   1.0000   1.0000   1.0000   1.0000   1.0000
     1.0000   1.0000   1.0000   1.0000   1.0000   1.0000   1.0000   1.0000
     1.0000   1.0000   1.0000   1.0000   1.0000   1.0000   1.0000   1.0000
     1.0000   1.0000   1.0000   1.0000   1.0000   1.0000   1.0000   1.0000
     1.0000   1.0000   1.0000   1.0000   1.0000   1.0000   1.0000   1.0000
     1.0000   1.0000   1.0000   1.0000   1.0000   1.0000   1.0000   1.0000
     1.0000   1.0000   1.0000   1.0000   1.0000   1.0000   1.0000   1.0000
     1.0000   1.0000   1.0000   1.0000   1.0000   1.0000   1.0000   1.0000
     1.0000   1.0000   1.0000   1.0000   1.0000   1.0000   1.0000   1.0000
     1.0000   1.0000   1.0000   1.0000   1.0000   1.0000   1.0000   1.0000
     1.0000   1.0000   1.0000   1.0000   1.0000   1.0000   1.0000   1.0000
     1.0000   1.0000   1.0000   1.0000   1.0000   1.0000   1.0000   1.0000
     1.0000   1.0000   1.0000   1.0000   1.0000   1.0000   1.0000   1.0000
     1.0000   1.0176   1.0175  -0.0290  -0.0290  -0.0021  -0.0001  -0.0001
    -0.0001  -0.0000  -0.0000  -0.0000  -0.0000  -0.0000  -0.0000  -0.0000
    -0.0000  -0.0000  -0.0000  -0.0000  -0.0000  -0.0000  -0.0000  -0.0000
    -0.0000  -0.0000  -0.0000  -0.0000  -0.0000  -0.0000  -0.0000  -0.0000
    -0.0000  -0.0000  -0.0000  -0.0000  -0.0000  -0.0000  -0.0000  -0.0000
    -0.0000  -0.0000  -0.0000  -0.0000  -0.0000  -0.0000  -0.0000  -0.0000
    -0.0000  -0.0000  -0.0000  -0.0000  -0.0000  -0.0000  -0.0000  -0.0000

          k = 0.0000-0.5774 0.0000 (  8560 PWs)   bands (ev):

   -78.4331 -78.1206 -77.9974 -73.4488 -73.3637 -73.2687 -44.4525 -44.4002
   -44.4001 -44.1162 -44.1162 -44.1070 -44.1012 -43.9394 -43.9394 -39.6001
   -39.5580 -39.5579 -39.5066 -39.4781 -39.4781 -39.4481 -39.3755 -39.3755
   -10.7247 -10.7055 -10.6930 -10.6878 -10.6828 -10.6761 -10.6588 -10.6437
   -10.6386 -10.6338 -10.6256 -10.6243 -10.6191 -10.6160 -10.5900 -10.5799
   -10.5748 -10.5701 -10.5633 -10.5620 -10.5599 -10.5519 -10.5479 -10.5361
   -10.5351 -10.5244 -10.5230 -10.5124 -10.5102 -10.4985  -6.6854  -6.6523
    -6.4892  -6.2861  -6.2376  -5.8978  -5.8136  -5.7545  -5.6381  -5.5710
    -5.5093  -5.4882  -5.4110  -5.3455  -5.2195  -5.1627  -5.0577  -4.9830
     1.5042   1.7591   1.8025   2.0563   2.1322   2.3061   5.5726   5.8498
     5.8699   6.0110   6.1986   6.2448   6.3219   6.3660   6.3882   6.5644
     6.6047   6.6681   6.7914   6.8376   7.0790   7.1058   7.1783   7.2965
     7.3426   7.4716   7.5572   7.5961   7.7376   7.8422   7.8616   7.9750
     8.0297   8.1765   8.2156   8.3328   8.3522   8.3660   8.4954   8.5609
     8.7206   8.7931   8.8797   8.9948   9.0339   9.1154   9.1493   9.2335
     9.2613   9.3621   9.4325   9.5276   9.6346   9.7339   9.8161   9.8403
     9.8634   9.9524   9.9827  10.0918  10.1652  10.2586  10.2969  10.5080
    10.7004  10.7700  10.9845  11.0687  11.1734  11.3563  11.5387  11.8456
    11.8747  11.9456  12.5672  12.8869  13.0148  13.0899  13.1713  13.2122
    13.2963  13.3398  13.5036  13.6223  14.2387  14.2854  14.4913  14.7727
    14.8236  15.1972  15.3870  15.6817  15.7495  15.8661  15.9482  16.0060
    16.1095  16.1551  16.2441  16.9743  17.1289  17.2539  17.3233  17.3941
    17.4727  17.5346  17.6187  17.6950  21.3703  21.5757  21.8634  22.2665
    22.4403  22.5443  22.9157  22.9740  23.0524  23.1926  23.3114  23.3420
    23.4246  23.4600  23.9393  23.9662  24.1509  24.1803  24.3199  24.4317

     occupation numbers 
     1.0000   1.0000   1.0000   1.0000   1.0000   1.0000   1.0000   1.0000
     1.0000   1.0000   1.0000   1.0000   1.0000   1.0000   1.0000   1.0000
     1.0000   1.0000   1.0000   1.0000   1.0000   1.0000   1.0000   1.0000
     1.0000   1.0000   1.0000   1.0000   1.0000   1.0000   1.0000   1.0000
     1.0000   1.0000   1.0000   1.0000   1.0000   1.0000   1.0000   1.0000
     1.0000   1.0000   1.0000   1.0000   1.0000   1.0000   1.0000   1.0000
     1.0000   1.0000   1.0000   1.0000   1.0000   1.0000   1.0000   1.0000
     1.0000   1.0000   1.0000   1.0000   1.0000   1.0000   1.0000   1.0000
     1.0000   1.0000   1.0000   1.0000   1.0000   1.0000   1.0000   1.0000
     1.0000   1.0000   1.0000   1.0000   1.0000   1.0000   1.0000   1.0000
     1.0000   1.0000   1.0000   1.0000   1.0000   1.0000   1.0000   1.0000
     1.0000   1.0000   1.0000   1.0000   1.0000   1.0000   1.0000   1.0000
     1.0000   1.0000   1.0000   1.0000   1.0000   1.0000   1.0000   1.0000
     1.0000   1.0000   1.0000   1.0000   1.0000   1.0000   1.0000   1.0000
     1.0000   1.0000   1.0000   1.0000   1.0000   1.0000   1.0000   1.0000
     1.0000   1.0000   1.0000   1.0000   1.0000   1.0000   1.0000   1.0000
     1.0000   1.0000   1.0000   1.0000   1.0000   1.0000   1.0000   1.0000
     1.0000   1.0000   1.0000   1.0000   1.0000   1.0000   1.0000   1.0000
     1.0000   1.0000   1.0277  -0.0020  -0.0148  -0.0023  -0.0001  -0.0000
    -0.0000  -0.0000  -0.0000  -0.0000  -0.0000  -0.0000  -0.0000  -0.0000
    -0.0000  -0.0000  -0.0000  -0.0000  -0.0000  -0.0000  -0.0000  -0.0000
    -0.0000  -0.0000  -0.0000  -0.0000  -0.0000  -0.0000  -0.0000  -0.0000
    -0.0000  -0.0000  -0.0000  -0.0000  -0.0000  -0.0000  -0.0000  -0.0000
    -0.0000  -0.0000  -0.0000  -0.0000  -0.0000  -0.0000  -0.0000  -0.0000
    -0.0000  -0.0000  -0.0000  -0.0000  -0.0000  -0.0000  -0.0000  -0.0000

     the Fermi energy is    12.7711 ev

!    total energy              =   -3195.17347764 Ry
     estimated scf accuracy    <       0.00000008 Ry
     smearing contrib. (-TS)   =       0.00283816 Ry
     internal energy E=F+TS    =   -3195.17631580 Ry

     The total energy is F=E-TS. E is the sum of the following terms:
     one-electron contribution =   -1267.45945545 Ry
     hartree contribution      =     826.54552263 Ry
     xc contribution           =    -695.64517835 Ry
     ewald contribution        =   -2058.48132819 Ry
     Hubbard energy            =      -0.13587644 Ry

     total magnetization       =    -0.00 Bohr mag/cell
     absolute magnetization    =    27.25 Bohr mag/cell

     convergence has been achieved in  11 iterations

     Writing output data file /home/aldair1809/Documentos/QE/4BFO/hubbard_pbe_mp/lr_-0.05/bifeo3-Uhubbard.save/

     init_run     :     14.35s CPU     15.69s WALL (       1 calls)
     electrons    :   1904.76s CPU   1935.96s WALL (       1 calls)

     Called by init_run:
     wfcinit      :     11.63s CPU     12.58s WALL (       1 calls)
     potinit      :      0.14s CPU      0.20s WALL (       1 calls)
     hinit0       :      1.27s CPU      1.30s WALL (       1 calls)

     Called by electrons:
     c_bands      :   1796.59s CPU   1820.94s WALL (      11 calls)
     sum_band     :     96.58s CPU    100.64s WALL (      11 calls)
     v_of_rho     :      1.75s CPU      1.83s WALL (      12 calls)
     v_h          :      0.05s CPU      0.05s WALL (      12 calls)
     v_xc         :      1.70s CPU      1.77s WALL (      12 calls)
     newd         :     10.49s CPU     13.34s WALL (      12 calls)
     mix_rho      :      0.33s CPU      0.35s WALL (      11 calls)

     Called by c_bands:
     init_us_2    :      1.33s CPU      1.35s WALL (      92 calls)
     ccgdiagg     :   1495.85s CPU   1516.93s WALL (      48 calls)
     wfcrot       :    299.56s CPU    302.82s WALL (      44 calls)

     Called by sum_band:
     sum_band:wei :      0.03s CPU      0.03s WALL (      11 calls)
     sum_band:loo :     76.16s CPU     77.56s WALL (      11 calls)
     sum_band:buf :      0.22s CPU      0.22s WALL (      44 calls)
     sum_band:ini :      0.63s CPU      0.63s WALL (      44 calls)
     sum_band:cal :     57.61s CPU     58.05s WALL (      44 calls)
     sum_band:bec :      0.30s CPU      0.30s WALL (      44 calls)
     addusdens    :     15.69s CPU     18.31s WALL (      11 calls)
     addusd:skk   :      0.06s CPU      0.07s WALL (      44 calls)
     addusd:dgemm :      8.21s CPU     10.34s WALL (      88 calls)
     addusd:qvan2 :      7.23s CPU      7.26s WALL (      88 calls)

     Called by *cgdiagg:
     h_psi        :    792.88s CPU    808.99s WALL (   33840 calls)
     s_psi        :    547.15s CPU    550.40s WALL (   67640 calls)

     Called by h_psi:
     h_psi:calbec :    280.01s CPU    284.31s WALL (   33840 calls)
     vloc_psi     :    163.62s CPU    172.91s WALL (   33840 calls)
     add_vuspsi   :    301.71s CPU    303.43s WALL (   33840 calls)
     vhpsi        :     45.98s CPU     46.89s WALL (   33840 calls)
     hs_1psi      :    871.91s CPU    886.86s WALL (   33796 calls)
     s_1psi       :    463.41s CPU    467.60s WALL (   33796 calls)

     General routines
     calbec       :    595.07s CPU    603.38s WALL (  101568 calls)
     fft          :      0.81s CPU      0.87s WALL (     250 calls)
     ffts         :      0.07s CPU      0.08s WALL (      22 calls)
     fftw         :    154.66s CPU    164.17s WALL (   93992 calls)
     davcio       :      0.00s CPU      0.07s WALL (       4 calls)

     Parallel routines
     fft_scatt_xy :     25.26s CPU     27.25s WALL (   94264 calls)
     fft_scatt_yz :     28.21s CPU     31.72s WALL (   94264 calls)

     Hubbard U routines
     new_ns       :      4.08s CPU      4.10s WALL (      11 calls)
     new_ns       :      4.08s CPU      4.10s WALL (      11 calls)
     vhpsi        :     45.98s CPU     46.89s WALL (   33840 calls)

     PWSCF        :  32m 0.12s CPU  32m33.16s WALL


   This run was terminated on:  21:48:15  26Oct2024            

=------------------------------------------------------------------------------=
   JOB DONE.
=------------------------------------------------------------------------------=
