
     Program PWSCF v.6.7MaX starts on 10Nov2024 at 16:21:31 

     This program is part of the open-source Quantum ESPRESSO suite
     for quantum simulation of materials; please cite
         "P. Giannozzi et al., J. Phys.:Condens. Matter 21 395502 (2009);
         "P. Giannozzi et al., J. Phys.:Condens. Matter 29 465901 (2017);
          URL http://www.quantum-espresso.org", 
     in publications or presentations arising from this work. More details at
     http://www.quantum-espresso.org/quote

     Parallel version (MPI), running on     5 processors

     MPI processes distributed on     1 nodes
     R & G space division:  proc/nbgrp/npool/nimage =       5
     Reading input from test.in

     Current dimensions of program PWSCF are:
     Max number of different atomic species (ntypx) = 10
     Max number of k-points (npk) =  40000
     Max angular momentum in pseudopotentials (lmaxx) =  3
     Message from routine iosys:
     wrong startingpot: use default (1)

     Subspace diagonalization in iterative solution of the eigenvalue problem:
     one sub-group per band group will be used
     scalapack distributed-memory algorithm (size of sub-group:  2*  2 procs)

     Found symmetry operation: I + ( -0.5000 -0.5000  0.0000)
     This is a supercell, fractional translations are disabled

     Parallelization info
     --------------------
     sticks:   dense  smooth     PW     G-vecs:    dense   smooth      PW
     Min         776     387    103                36333    12845    1817
     Max         778     389    104                36334    12847    1822
     Sum        3885    1941    517               181667    64229    9093



     bravais-lattice index     =            1
     lattice parameter (alat)  =      14.2485  a.u.
     unit-cell volume          =    2892.7482 (a.u.)^3
     number of atoms/cell      =           40
     number of atomic types    =            4
     number of electrons       =       392.00
     number of Kohn-Sham states=          235
     kinetic-energy cutoff     =      30.0000  Ry
     charge density cutoff     =     240.0000  Ry
     scf convergence threshold =      1.0E-07
     mixing beta               =       0.4000
     number of iterations used =            8  plain     mixing
     Exchange-correlation=  SLA  PW   PBX  PBC
                           (   1   4   3   4   0   0   0)

     celldm(1)=  14.248535  celldm(2)=   0.000000  celldm(3)=   0.000000
     celldm(4)=   0.000000  celldm(5)=   0.000000  celldm(6)=   0.000000

     crystal axes: (cart. coord. in units of alat)
               a(1) = (   1.000000   0.000000   0.000000 )  
               a(2) = (   0.000000   1.000000   0.000000 )  
               a(3) = (   0.000000   0.000000   1.000000 )  

     reciprocal axes: (cart. coord. in units 2 pi/alat)
               b(1) = (  1.000000  0.000000  0.000000 )  
               b(2) = (  0.000000  1.000000  0.000000 )  
               b(3) = (  0.000000  0.000000  1.000000 )  


     PseudoPot. # 1 for O  read from file:
     /home/aldair1809/Programas/QE/q-e-qe-7.3/pseudo/o_pbe_v1.2.uspp.F.UPF
     MD5 check sum: 734c27235a0248c51dbae37a1fbe46ec
     Pseudo is Ultrasoft + core correction, Zval =  6.0
     Generated by new atomic code, or converted to UPF format
     Using radial grid of  737 points,  5 beta functions with: 
                l(1) =   0
                l(2) =   0
                l(3) =   1
                l(4) =   1
                l(5) =   2
     Q(r) pseudized with  8 coefficients,  rinner =    0.900   0.900   0.900
                                                       0.900   0.900

     PseudoPot. # 2 for Bi read from file:
     /home/aldair1809/Programas/QE/q-e-qe-7.3/pseudo/bi_pbe_v1.uspp.F.UPF
     MD5 check sum: cceb9f28ec65b6d7ff33140f5b0b1758
     Pseudo is Ultrasoft + core correction, Zval = 15.0
     Generated by new atomic code, or converted to UPF format
     Using radial grid of  899 points,  6 beta functions with: 
                l(1) =   0
                l(2) =   0
                l(3) =   1
                l(4) =   1
                l(5) =   2
                l(6) =   2
     Q(r) pseudized with  6 coefficients,  rinner =    1.000   1.000   1.000
                                                       1.000   1.000

     PseudoPot. # 3 for Fe read from file:
     /home/aldair1809/Programas/QE/q-e-qe-7.3/pseudo/fe_pbe_v1.5.uspp.F.UPF
     MD5 check sum: a130daea23fe5165f5d574ae7f82ed95
     Pseudo is Ultrasoft + core correction, Zval = 16.0
     Generated by new atomic code, or converted to UPF format
     Using radial grid of  861 points,  6 beta functions with: 
                l(1) =   0
                l(2) =   0
                l(3) =   1
                l(4) =   1
                l(5) =   2
                l(6) =   2
     Q(r) pseudized with  8 coefficients,  rinner =    1.000   1.000   1.000
                                                       1.000   1.000

     PseudoPot. # 4 for Fe read from file:
     /home/aldair1809/Programas/QE/q-e-qe-7.3/pseudo/fe_pbe_v1.5.uspp.F.UPF
     MD5 check sum: a130daea23fe5165f5d574ae7f82ed95
     Pseudo is Ultrasoft + core correction, Zval = 16.0
     Generated by new atomic code, or converted to UPF format
     Using radial grid of  861 points,  6 beta functions with: 
                l(1) =   0
                l(2) =   0
                l(3) =   1
                l(4) =   1
                l(5) =   2
                l(6) =   2
     Q(r) pseudized with  8 coefficients,  rinner =    1.000   1.000   1.000
                                                       1.000   1.000

     atomic species   valence    mass     pseudopotential
        O              6.00    15.99940     O ( 1.00)
        Bi            15.00   208.98040     Bi( 1.00)
        Fe1           16.00    55.84500     Fe( 1.00)
        Fe2           16.00    55.84500     Fe( 1.00)

     Starting magnetic structure 
     atomic species   magnetization
        O            0.000
        Bi           0.000
        Fe1         -0.800
        Fe2          0.800

      8 Sym. Ops., with inversion, found


                                    s                        frac. trans.

      isym =  1     identity                                     

 cryst.   s( 1) = (     1          0          0      )
                  (     0          1          0      )
                  (     0          0          1      )

 cart.    s( 1) = (  1.0000000  0.0000000  0.0000000 )
                  (  0.0000000  1.0000000  0.0000000 )
                  (  0.0000000  0.0000000  1.0000000 )


      isym =  2     180 deg rotation - cart. axis [0,0,1]        

 cryst.   s( 2) = (    -1          0          0      )
                  (     0         -1          0      )
                  (     0          0          1      )

 cart.    s( 2) = ( -1.0000000  0.0000000  0.0000000 )
                  (  0.0000000 -1.0000000  0.0000000 )
                  (  0.0000000  0.0000000  1.0000000 )


      isym =  3     180 deg rotation - cart. axis [1,1,0]        

 cryst.   s( 3) = (     0          1          0      )
                  (     1          0          0      )
                  (     0          0         -1      )

 cart.    s( 3) = (  0.0000000  1.0000000  0.0000000 )
                  (  1.0000000  0.0000000  0.0000000 )
                  (  0.0000000  0.0000000 -1.0000000 )


      isym =  4     180 deg rotation - cart. axis [1,-1,0]       

 cryst.   s( 4) = (     0         -1          0      )
                  (    -1          0          0      )
                  (     0          0         -1      )

 cart.    s( 4) = (  0.0000000 -1.0000000  0.0000000 )
                  ( -1.0000000  0.0000000  0.0000000 )
                  (  0.0000000  0.0000000 -1.0000000 )


      isym =  5     inversion                                    

 cryst.   s( 5) = (    -1          0          0      )
                  (     0         -1          0      )
                  (     0          0         -1      )

 cart.    s( 5) = ( -1.0000000  0.0000000  0.0000000 )
                  (  0.0000000 -1.0000000  0.0000000 )
                  (  0.0000000  0.0000000 -1.0000000 )


      isym =  6     inv. 180 deg rotation - cart. axis [0,0,1]   

 cryst.   s( 6) = (     1          0          0      )
                  (     0          1          0      )
                  (     0          0         -1      )

 cart.    s( 6) = (  1.0000000  0.0000000  0.0000000 )
                  (  0.0000000  1.0000000  0.0000000 )
                  (  0.0000000  0.0000000 -1.0000000 )


      isym =  7     inv. 180 deg rotation - cart. axis [1,1,0]   

 cryst.   s( 7) = (     0         -1          0      )
                  (    -1          0          0      )
                  (     0          0          1      )

 cart.    s( 7) = (  0.0000000 -1.0000000  0.0000000 )
                  ( -1.0000000  0.0000000  0.0000000 )
                  (  0.0000000  0.0000000  1.0000000 )


      isym =  8     inv. 180 deg rotation - cart. axis [1,-1,0]  

 cryst.   s( 8) = (     0          1          0      )
                  (     1          0          0      )
                  (     0          0          1      )

 cart.    s( 8) = (  0.0000000  1.0000000  0.0000000 )
                  (  1.0000000  0.0000000  0.0000000 )
                  (  0.0000000  0.0000000  1.0000000 )


     point group D_2h (mmm) 
     there are  8 classes
     the character table:

       E     C2    C2'   C2''  i     s_v   s_v'  s_v''
A_g    1.00  1.00  1.00  1.00  1.00  1.00  1.00  1.00
B_1g   1.00  1.00 -1.00 -1.00  1.00  1.00 -1.00 -1.00
B_2g   1.00 -1.00  1.00 -1.00  1.00 -1.00  1.00 -1.00
B_3g   1.00 -1.00 -1.00  1.00  1.00 -1.00 -1.00  1.00
A_u    1.00  1.00  1.00  1.00 -1.00 -1.00 -1.00 -1.00
B_1u   1.00  1.00 -1.00 -1.00 -1.00 -1.00  1.00  1.00
B_2u   1.00 -1.00  1.00 -1.00 -1.00  1.00 -1.00  1.00
B_3u   1.00 -1.00 -1.00  1.00 -1.00  1.00  1.00 -1.00

     the symmetry operations in each class and the name of the first element:

     E        1
          identity                                               
     C2       2
          180 deg rotation - cart. axis [0,0,1]                  
     C2'      4
          180 deg rotation - cart. axis [1,-1,0]                 
     C2''     3
          180 deg rotation - cart. axis [1,1,0]                  
     i        5
          inversion                                              
     s_v      6
          inv. 180 deg rotation - cart. axis [0,0,1]             
     s_v'     8
          inv. 180 deg rotation - cart. axis [1,-1,0]            
     s_v''    7
          inv. 180 deg rotation - cart. axis [1,1,0]             

   Cartesian axes

     site n.     atom                  positions (alat units)
         1           Bi  tau(   1) = (   0.0000000   0.0000000   0.0000000  )
         2           Bi  tau(   2) = (   0.5000000   0.5000000   0.0000000  )
         3           Bi  tau(   3) = (   0.5000000   0.0000000   0.0000000  )
         4           Bi  tau(   4) = (   0.0000000   0.5000000   0.5000000  )
         5           Bi  tau(   5) = (   0.0000000   0.0000000   0.5000000  )
         6           Bi  tau(   6) = (   0.5000000   0.5000000   0.5000000  )
         7           Bi  tau(   7) = (   0.5000000   0.0000000   0.5000000  )
         8           Bi  tau(   8) = (   0.0000000   0.5000000   0.0000000  )
         9           Fe2 tau(   9) = (   0.2500000   0.2500000   0.2500000  )
        10           Fe2 tau(  10) = (   0.7500000   0.7500000   0.2500000  )
        11           Fe1 tau(  11) = (   0.7500000   0.2500000   0.2500000  )
        12           Fe1 tau(  12) = (   0.2500000   0.7500000   0.7500000  )
        13           Fe2 tau(  13) = (   0.2500000   0.2500000   0.7500000  )
        14           Fe2 tau(  14) = (   0.7500000   0.7500000   0.7500000  )
        15           Fe1 tau(  15) = (   0.7500000   0.2500000   0.7500000  )
        16           Fe1 tau(  16) = (   0.2500000   0.7500000   0.2500000  )
        17           O   tau(  17) = (   0.2500000   0.2500000   0.0000000  )
        18           O   tau(  18) = (   0.2500000   0.0000000   0.2500000  )
        19           O   tau(  19) = (   0.0000000   0.2500000   0.2500000  )
        20           O   tau(  20) = (   0.7500000   0.7500000   0.0000000  )
        21           O   tau(  21) = (   0.7500000   0.2500000   0.0000000  )
        22           O   tau(  22) = (   0.2500000   0.7500000   0.5000000  )
        23           O   tau(  23) = (   0.2500000   0.2500000   0.5000000  )
        24           O   tau(  24) = (   0.7500000   0.7500000   0.5000000  )
        25           O   tau(  25) = (   0.7500000   0.2500000   0.5000000  )
        26           O   tau(  26) = (   0.2500000   0.7500000   0.0000000  )
        27           O   tau(  27) = (   0.7500000   0.5000000   0.2500000  )
        28           O   tau(  28) = (   0.7500000   0.0000000   0.2500000  )
        29           O   tau(  29) = (   0.2500000   0.5000000   0.7500000  )
        30           O   tau(  30) = (   0.2500000   0.0000000   0.7500000  )
        31           O   tau(  31) = (   0.7500000   0.5000000   0.7500000  )
        32           O   tau(  32) = (   0.7500000   0.0000000   0.7500000  )
        33           O   tau(  33) = (   0.2500000   0.5000000   0.2500000  )
        34           O   tau(  34) = (   0.5000000   0.7500000   0.2500000  )
        35           O   tau(  35) = (   0.5000000   0.2500000   0.2500000  )
        36           O   tau(  36) = (   0.0000000   0.7500000   0.7500000  )
        37           O   tau(  37) = (   0.0000000   0.2500000   0.7500000  )
        38           O   tau(  38) = (   0.5000000   0.7500000   0.7500000  )
        39           O   tau(  39) = (   0.5000000   0.2500000   0.7500000  )
        40           O   tau(  40) = (   0.0000000   0.7500000   0.2500000  )

   Crystallographic axes

     site n.     atom                  positions (cryst. coord.)
         1           Bi  tau(   1) = (  0.0000000  0.0000000  0.0000000  )
         2           Bi  tau(   2) = (  0.5000000  0.5000000  0.0000000  )
         3           Bi  tau(   3) = (  0.5000000  0.0000000  0.0000000  )
         4           Bi  tau(   4) = (  0.0000000  0.5000000  0.5000000  )
         5           Bi  tau(   5) = (  0.0000000  0.0000000  0.5000000  )
         6           Bi  tau(   6) = (  0.5000000  0.5000000  0.5000000  )
         7           Bi  tau(   7) = (  0.5000000  0.0000000  0.5000000  )
         8           Bi  tau(   8) = (  0.0000000  0.5000000  0.0000000  )
         9           Fe2 tau(   9) = (  0.2500000  0.2500000  0.2500000  )
        10           Fe2 tau(  10) = (  0.7500000  0.7500000  0.2500000  )
        11           Fe1 tau(  11) = (  0.7500000  0.2500000  0.2500000  )
        12           Fe1 tau(  12) = (  0.2500000  0.7500000  0.7500000  )
        13           Fe2 tau(  13) = (  0.2500000  0.2500000  0.7500000  )
        14           Fe2 tau(  14) = (  0.7500000  0.7500000  0.7500000  )
        15           Fe1 tau(  15) = (  0.7500000  0.2500000  0.7500000  )
        16           Fe1 tau(  16) = (  0.2500000  0.7500000  0.2500000  )
        17           O   tau(  17) = (  0.2500000  0.2500000  0.0000000  )
        18           O   tau(  18) = (  0.2500000  0.0000000  0.2500000  )
        19           O   tau(  19) = (  0.0000000  0.2500000  0.2500000  )
        20           O   tau(  20) = (  0.7500000  0.7500000  0.0000000  )
        21           O   tau(  21) = (  0.7500000  0.2500000  0.0000000  )
        22           O   tau(  22) = (  0.2500000  0.7500000  0.5000000  )
        23           O   tau(  23) = (  0.2500000  0.2500000  0.5000000  )
        24           O   tau(  24) = (  0.7500000  0.7500000  0.5000000  )
        25           O   tau(  25) = (  0.7500000  0.2500000  0.5000000  )
        26           O   tau(  26) = (  0.2500000  0.7500000  0.0000000  )
        27           O   tau(  27) = (  0.7500000  0.5000000  0.2500000  )
        28           O   tau(  28) = (  0.7500000  0.0000000  0.2500000  )
        29           O   tau(  29) = (  0.2500000  0.5000000  0.7500000  )
        30           O   tau(  30) = (  0.2500000  0.0000000  0.7500000  )
        31           O   tau(  31) = (  0.7500000  0.5000000  0.7500000  )
        32           O   tau(  32) = (  0.7500000  0.0000000  0.7500000  )
        33           O   tau(  33) = (  0.2500000  0.5000000  0.2500000  )
        34           O   tau(  34) = (  0.5000000  0.7500000  0.2500000  )
        35           O   tau(  35) = (  0.5000000  0.2500000  0.2500000  )
        36           O   tau(  36) = (  0.0000000  0.7500000  0.7500000  )
        37           O   tau(  37) = (  0.0000000  0.2500000  0.7500000  )
        38           O   tau(  38) = (  0.5000000  0.7500000  0.7500000  )
        39           O   tau(  39) = (  0.5000000  0.2500000  0.7500000  )
        40           O   tau(  40) = (  0.0000000  0.7500000  0.2500000  )

     number of k points=     8  Methfessel-Paxton smearing, width (Ry)=  0.0100
                       cart. coord. in units 2pi/alat
        k(    1) = (   0.0000000   0.0000000   0.0000000), wk =   0.0370370
        k(    2) = (   0.0000000   0.0000000   0.3333333), wk =   0.0740741
        k(    3) = (   0.0000000   0.3333333   0.3333333), wk =   0.2962963
        k(    4) = (   0.3333333   0.3333333   0.3333333), wk =   0.1481481
        k(    5) = (   0.3333333   0.0000000   0.0000000), wk =   0.1481481
        k(    6) = (   0.3333333  -0.3333333   0.0000000), wk =   0.0740741
        k(    7) = (  -0.3333333  -0.3333333   0.0000000), wk =   0.0740741
        k(    8) = (   0.3333333  -0.3333333   0.3333333), wk =   0.1481481

                       cryst. coord.
        k(    1) = (   0.0000000   0.0000000   0.0000000), wk =   0.0370370
        k(    2) = (   0.0000000   0.0000000   0.3333333), wk =   0.0740741
        k(    3) = (   0.0000000   0.3333333   0.3333333), wk =   0.2962963
        k(    4) = (   0.3333333   0.3333333   0.3333333), wk =   0.1481481
        k(    5) = (   0.3333333   0.0000000   0.0000000), wk =   0.1481481
        k(    6) = (   0.3333333  -0.3333333   0.0000000), wk =   0.0740741
        k(    7) = (  -0.3333333  -0.3333333   0.0000000), wk =   0.0740741
        k(    8) = (   0.3333333  -0.3333333   0.3333333), wk =   0.1481481

     Dense  grid:   181667 G-vectors     FFT dimensions: (  72,  72,  72)

     Smooth grid:    64229 G-vectors     FFT dimensions: (  50,  50,  50)

     Dynamical RAM for                 wfc:       5.76 MB

     Dynamical RAM for     wfc (w. buffer):      97.84 MB

     Dynamical RAM for           str. fact:       2.22 MB

     Dynamical RAM for           local pot:       0.00 MB

     Dynamical RAM for          nlocal pot:      14.69 MB

     Dynamical RAM for                qrad:       4.98 MB

     Dynamical RAM for          rho,v,vnew:       6.89 MB

     Dynamical RAM for               rhoin:       2.30 MB

     Dynamical RAM for            rho*nmix:      17.74 MB

     Dynamical RAM for           G-vectors:       2.18 MB

     Dynamical RAM for          h,s,v(r/c):       0.63 MB

     Dynamical RAM for          <psi|beta>:       2.15 MB

     Dynamical RAM for      wfcinit/wfcrot:      15.02 MB

     Dynamical RAM for           addusdens:     116.98 MB

     Estimated static dynamical RAM per process >     155.16 MB

     Estimated max dynamical RAM per process >     272.14 MB

     Estimated total dynamical RAM >       1.33 GB

     Check: negative core charge=   -0.000015
     Generating pointlists ...
     new r_m :   0.1031 (alat units)  1.4694 (a.u.) for type    1
     new r_m :   0.1458 (alat units)  2.0780 (a.u.) for type    2
     new r_m :   0.1031 (alat units)  1.4694 (a.u.) for type    3
     new r_m :   0.1031 (alat units)  1.4694 (a.u.) for type    4

     Initial potential from superposition of free atoms

     starting charge  375.99958, renormalised to  392.00000

     negative rho (up, down):  1.818E-01 1.818E-01
     Starting wfcs are  272 randomized atomic wfcs

     total cpu time spent up to now is      110.6 secs

     Self-consistent Calculation

     iteration #  1     ecut=    30.00 Ry     beta= 0.40
     CG style diagonalization
     ethr =  1.00E-02,  avg # of iterations =  2.5

     negative rho (up, down):  1.683E-01 1.683E-01

     total cpu time spent up to now is      667.9 secs

     total energy              =   -4250.14257493 Ry
     estimated scf accuracy    <      30.21193222 Ry

     total magnetization       =     0.00 Bohr mag/cell
     absolute magnetization    =    39.42 Bohr mag/cell

     iteration #  2     ecut=    30.00 Ry     beta= 0.40
     CG style diagonalization
     ethr =  7.71E-03,  avg # of iterations =  3.5

     negative rho (up, down):  1.678E-01 1.678E-01

     total cpu time spent up to now is     1316.7 secs

     total energy              =   -4256.27410431 Ry
     estimated scf accuracy    <       8.02616310 Ry

     total magnetization       =    -0.00 Bohr mag/cell
     absolute magnetization    =    36.66 Bohr mag/cell

     iteration #  3     ecut=    30.00 Ry     beta= 0.40
     CG style diagonalization
     ethr =  2.05E-03,  avg # of iterations =  3.2

     negative rho (up, down):  1.657E-01 1.657E-01

     total cpu time spent up to now is     1928.4 secs

     total energy              =   -4258.52700457 Ry
     estimated scf accuracy    <       2.77786413 Ry

     total magnetization       =     0.01 Bohr mag/cell
     absolute magnetization    =    36.13 Bohr mag/cell

     iteration #  4     ecut=    30.00 Ry     beta= 0.40
     CG style diagonalization
     ethr =  7.09E-04,  avg # of iterations =  3.2

     negative rho (up, down):  1.659E-01 1.659E-01

     total cpu time spent up to now is     2445.3 secs

     total energy              =   -4258.86631623 Ry
     estimated scf accuracy    <       0.50310480 Ry

     total magnetization       =     0.29 Bohr mag/cell
     absolute magnetization    =    30.52 Bohr mag/cell

     iteration #  5     ecut=    30.00 Ry     beta= 0.40
     CG style diagonalization
     ethr =  1.28E-04,  avg # of iterations =  3.2

     negative rho (up, down):  1.660E-01 1.660E-01

     total cpu time spent up to now is     2971.0 secs

     total energy              =   -4258.88991217 Ry
     estimated scf accuracy    <       0.78126893 Ry

     total magnetization       =    -1.87 Bohr mag/cell
     absolute magnetization    =    29.69 Bohr mag/cell

     iteration #  6     ecut=    30.00 Ry     beta= 0.40
     CG style diagonalization
     ethr =  1.28E-04,  avg # of iterations =  3.0

     negative rho (up, down):  1.669E-01 1.669E-01

     total cpu time spent up to now is     3533.7 secs

     total energy              =   -4258.96413782 Ry
     estimated scf accuracy    <       1.07030843 Ry

     total magnetization       =     2.48 Bohr mag/cell
     absolute magnetization    =    29.16 Bohr mag/cell

     iteration #  7     ecut=    30.00 Ry     beta= 0.40
     CG style diagonalization
     ethr =  1.28E-04,  avg # of iterations =  3.0

     negative rho (up, down):  1.672E-01 1.672E-01

     total cpu time spent up to now is     4090.5 secs

     total energy              =   -4259.00660148 Ry
     estimated scf accuracy    <       0.14785263 Ry

     total magnetization       =     0.90 Bohr mag/cell
     absolute magnetization    =    26.67 Bohr mag/cell

     iteration #  8     ecut=    30.00 Ry     beta= 0.40
     CG style diagonalization
     ethr =  3.77E-05,  avg # of iterations =  3.1

     negative rho (up, down):  1.671E-01 1.672E-01

     total cpu time spent up to now is     4632.3 secs

     total energy              =   -4259.02233119 Ry
     estimated scf accuracy    <       0.08714860 Ry

     total magnetization       =    -0.43 Bohr mag/cell
     absolute magnetization    =    25.93 Bohr mag/cell

     iteration #  9     ecut=    30.00 Ry     beta= 0.40
     CG style diagonalization
     ethr =  2.22E-05,  avg # of iterations =  3.1

     negative rho (up, down):  1.671E-01 1.671E-01

     total cpu time spent up to now is     5151.8 secs

     total energy              =   -4259.02887949 Ry
     estimated scf accuracy    <       0.02422756 Ry

     total magnetization       =     0.13 Bohr mag/cell
     absolute magnetization    =    24.74 Bohr mag/cell

     iteration # 10     ecut=    30.00 Ry     beta= 0.40
     CG style diagonalization
     ethr =  6.18E-06,  avg # of iterations =  3.2

     negative rho (up, down):  1.671E-01 1.671E-01

     total cpu time spent up to now is     5751.3 secs

     total energy              =   -4259.03351515 Ry
     estimated scf accuracy    <       0.02124734 Ry

     total magnetization       =     0.11 Bohr mag/cell
     absolute magnetization    =    23.35 Bohr mag/cell

     iteration # 11     ecut=    30.00 Ry     beta= 0.40
     CG style diagonalization
     c_bands:  1 eigenvalues not converged
     c_bands:  1 eigenvalues not converged
     ethr =  5.42E-06,  avg # of iterations =  3.3

     negative rho (up, down):  1.674E-01 1.674E-01

     total cpu time spent up to now is     6364.7 secs

     total energy              =   -4259.03073229 Ry
     estimated scf accuracy    <       0.03909324 Ry

     total magnetization       =     0.54 Bohr mag/cell
     absolute magnetization    =    21.89 Bohr mag/cell

     iteration # 12     ecut=    30.00 Ry     beta= 0.40
     CG style diagonalization
     ethr =  5.42E-06,  avg # of iterations =  3.3

     negative rho (up, down):  1.674E-01 1.673E-01

     total cpu time spent up to now is     6981.0 secs

     total energy              =   -4259.01827316 Ry
     estimated scf accuracy    <       0.12850168 Ry

     total magnetization       =    -0.69 Bohr mag/cell
     absolute magnetization    =    22.71 Bohr mag/cell

     iteration # 13     ecut=    30.00 Ry     beta= 0.40
     CG style diagonalization
     c_bands:  1 eigenvalues not converged
     ethr =  5.42E-06,  avg # of iterations =  3.5

     negative rho (up, down):  1.674E-01 1.674E-01

     total cpu time spent up to now is     7646.6 secs

     total energy              =   -4259.04921017 Ry
     estimated scf accuracy    <       0.01425922 Ry

     total magnetization       =     0.33 Bohr mag/cell
     absolute magnetization    =    19.55 Bohr mag/cell

     iteration # 14     ecut=    30.00 Ry     beta= 0.40
     CG style diagonalization
     c_bands:  1 eigenvalues not converged
     ethr =  3.64E-06,  avg # of iterations =  3.0

     negative rho (up, down):  1.674E-01 1.673E-01

     total cpu time spent up to now is     8215.3 secs

     total energy              =   -4259.05055569 Ry
     estimated scf accuracy    <       0.00557563 Ry

     total magnetization       =     0.13 Bohr mag/cell
     absolute magnetization    =    19.84 Bohr mag/cell

     iteration # 15     ecut=    30.00 Ry     beta= 0.40
     CG style diagonalization
     ethr =  1.42E-06,  avg # of iterations =  3.2

     negative rho (up, down):  1.673E-01 1.673E-01

     total cpu time spent up to now is     8767.6 secs

     total energy              =   -4259.05248051 Ry
     estimated scf accuracy    <       0.02119896 Ry

     total magnetization       =     0.41 Bohr mag/cell
     absolute magnetization    =    18.57 Bohr mag/cell

     iteration # 16     ecut=    30.00 Ry     beta= 0.40
     CG style diagonalization
     c_bands:  1 eigenvalues not converged
     ethr =  1.42E-06,  avg # of iterations =  3.4

     negative rho (up, down):  1.673E-01 1.673E-01

     total cpu time spent up to now is     9400.3 secs

     total energy              =   -4259.06019666 Ry
     estimated scf accuracy    <       0.01039346 Ry

     total magnetization       =     0.10 Bohr mag/cell
     absolute magnetization    =    17.03 Bohr mag/cell

     iteration # 17     ecut=    30.00 Ry     beta= 0.40
     CG style diagonalization
     ethr =  1.42E-06,  avg # of iterations =  3.1

     negative rho (up, down):  1.674E-01 1.674E-01

     total cpu time spent up to now is     9983.6 secs

     total energy              =   -4259.04560828 Ry
     estimated scf accuracy    <       0.00456151 Ry

     total magnetization       =     0.12 Bohr mag/cell
     absolute magnetization    =    16.44 Bohr mag/cell

     iteration # 18     ecut=    30.00 Ry     beta= 0.40
     CG style diagonalization
     c_bands:  2 eigenvalues not converged
     ethr =  1.16E-06,  avg # of iterations =  3.9

     negative rho (up, down):  1.674E-01 1.674E-01

     total cpu time spent up to now is    10750.6 secs

     total energy              =   -4259.06639818 Ry
     estimated scf accuracy    <       0.00477413 Ry

     total magnetization       =     0.17 Bohr mag/cell
     absolute magnetization    =    14.07 Bohr mag/cell

     iteration # 19     ecut=    30.00 Ry     beta= 0.40
     CG style diagonalization
     ethr =  1.16E-06,  avg # of iterations =  3.1

     negative rho (up, down):  1.673E-01 1.673E-01

     total cpu time spent up to now is    11253.4 secs

     total energy              =   -4259.06050299 Ry
     estimated scf accuracy    <       0.00299174 Ry

     total magnetization       =     0.17 Bohr mag/cell
     absolute magnetization    =    13.90 Bohr mag/cell

     iteration # 20     ecut=    30.00 Ry     beta= 0.40
     CG style diagonalization
     ethr =  7.63E-07,  avg # of iterations =  3.4

     negative rho (up, down):  1.674E-01 1.674E-01

     total cpu time spent up to now is    11844.4 secs

     total energy              =   -4259.06175038 Ry
     estimated scf accuracy    <       0.00115581 Ry

     total magnetization       =     0.19 Bohr mag/cell
     absolute magnetization    =    15.08 Bohr mag/cell

     iteration # 21     ecut=    30.00 Ry     beta= 0.40
     CG style diagonalization
     c_bands:  1 eigenvalues not converged
     c_bands:  1 eigenvalues not converged
     ethr =  2.95E-07,  avg # of iterations =  3.8

     negative rho (up, down):  1.674E-01 1.673E-01

     total cpu time spent up to now is    12568.8 secs

     total energy              =   -4259.06636324 Ry
     estimated scf accuracy    <       0.00022147 Ry

     total magnetization       =     0.22 Bohr mag/cell
     absolute magnetization    =    13.87 Bohr mag/cell

     iteration # 22     ecut=    30.00 Ry     beta= 0.40
     CG style diagonalization
     ethr =  5.65E-08,  avg # of iterations =  3.7

     negative rho (up, down):  1.674E-01 1.673E-01

     total cpu time spent up to now is    13274.2 secs

     total energy              =   -4259.06702230 Ry
     estimated scf accuracy    <       0.00026811 Ry

     total magnetization       =     0.22 Bohr mag/cell
     absolute magnetization    =    14.34 Bohr mag/cell

     iteration # 23     ecut=    30.00 Ry     beta= 0.40
     CG style diagonalization
     ethr =  5.65E-08,  avg # of iterations =  3.4

     negative rho (up, down):  1.674E-01 1.673E-01

     total cpu time spent up to now is    13924.5 secs

     total energy              =   -4259.06727216 Ry
     estimated scf accuracy    <       0.00002971 Ry

     total magnetization       =     0.20 Bohr mag/cell
     absolute magnetization    =    14.05 Bohr mag/cell

     iteration # 24     ecut=    30.00 Ry     beta= 0.40
     CG style diagonalization
     c_bands:  1 eigenvalues not converged
     ethr =  7.58E-09,  avg # of iterations =  3.8

     negative rho (up, down):  1.674E-01 1.673E-01

     total cpu time spent up to now is    14615.2 secs

     total energy              =   -4259.06736482 Ry
     estimated scf accuracy    <       0.00002143 Ry

     total magnetization       =     0.23 Bohr mag/cell
     absolute magnetization    =    13.91 Bohr mag/cell

     iteration # 25     ecut=    30.00 Ry     beta= 0.40
     CG style diagonalization
     ethr =  5.47E-09,  avg # of iterations =  3.2

     negative rho (up, down):  1.674E-01 1.673E-01

     total cpu time spent up to now is    15189.2 secs

     total energy              =   -4259.06737580 Ry
     estimated scf accuracy    <       0.00000350 Ry

     total magnetization       =     0.23 Bohr mag/cell
     absolute magnetization    =    13.95 Bohr mag/cell

     iteration # 26     ecut=    30.00 Ry     beta= 0.40
     CG style diagonalization
     ethr =  8.93E-10,  avg # of iterations =  3.3

     negative rho (up, down):  1.674E-01 1.673E-01

     total cpu time spent up to now is    15791.3 secs

     total energy              =   -4259.06738097 Ry
     estimated scf accuracy    <       0.00003421 Ry

     total magnetization       =     0.25 Bohr mag/cell
     absolute magnetization    =    13.93 Bohr mag/cell

     iteration # 27     ecut=    30.00 Ry     beta= 0.40
     CG style diagonalization
     ethr =  8.93E-10,  avg # of iterations =  3.0

     negative rho (up, down):  1.674E-01 1.673E-01

     total cpu time spent up to now is    16335.5 secs

     total energy              =   -4259.06738275 Ry
     estimated scf accuracy    <       0.00002744 Ry

     total magnetization       =     0.26 Bohr mag/cell
     absolute magnetization    =    13.93 Bohr mag/cell

     iteration # 28     ecut=    30.00 Ry     beta= 0.40
     CG style diagonalization
     ethr =  8.93E-10,  avg # of iterations =  3.0

     negative rho (up, down):  1.674E-01 1.673E-01

     total cpu time spent up to now is    16871.3 secs

     total energy              =   -4259.06738415 Ry
     estimated scf accuracy    <       0.00003340 Ry

     total magnetization       =     0.27 Bohr mag/cell
     absolute magnetization    =    13.93 Bohr mag/cell

     iteration # 29     ecut=    30.00 Ry     beta= 0.40
     CG style diagonalization
     ethr =  8.93E-10,  avg # of iterations =  3.0

     negative rho (up, down):  1.674E-01 1.673E-01

     total cpu time spent up to now is    17425.6 secs

     total energy              =   -4259.06738367 Ry
     estimated scf accuracy    <       0.00003439 Ry

     total magnetization       =     0.28 Bohr mag/cell
     absolute magnetization    =    13.93 Bohr mag/cell

     iteration # 30     ecut=    30.00 Ry     beta= 0.40
     CG style diagonalization
     ethr =  8.93E-10,  avg # of iterations =  3.0

     negative rho (up, down):  1.674E-01 1.673E-01

     total cpu time spent up to now is    17985.6 secs

     total energy              =   -4259.06738339 Ry
     estimated scf accuracy    <       0.00003459 Ry

     total magnetization       =     0.27 Bohr mag/cell
     absolute magnetization    =    13.94 Bohr mag/cell

     iteration # 31     ecut=    30.00 Ry     beta= 0.40
     CG style diagonalization
     ethr =  8.93E-10,  avg # of iterations =  3.0

     negative rho (up, down):  1.674E-01 1.673E-01

     total cpu time spent up to now is    18546.1 secs

     total energy              =   -4259.06737815 Ry
     estimated scf accuracy    <       0.00003782 Ry

     total magnetization       =     0.27 Bohr mag/cell
     absolute magnetization    =    13.94 Bohr mag/cell

     iteration # 32     ecut=    30.00 Ry     beta= 0.40
     CG style diagonalization
     ethr =  8.93E-10,  avg # of iterations =  3.1

     negative rho (up, down):  1.674E-01 1.673E-01

     total cpu time spent up to now is    19066.8 secs

     total energy              =   -4259.06736821 Ry
     estimated scf accuracy    <       0.00002466 Ry

     total magnetization       =     0.24 Bohr mag/cell
     absolute magnetization    =    13.94 Bohr mag/cell

     iteration # 33     ecut=    30.00 Ry     beta= 0.40
     CG style diagonalization
     ethr =  8.93E-10,  avg # of iterations =  3.3

     negative rho (up, down):  1.673E-01 1.673E-01

     total cpu time spent up to now is    19628.9 secs

     total energy              =   -4259.06737484 Ry
     estimated scf accuracy    <       0.00000578 Ry

     total magnetization       =     0.17 Bohr mag/cell
     absolute magnetization    =    13.95 Bohr mag/cell

     iteration # 34     ecut=    30.00 Ry     beta= 0.40
     CG style diagonalization
     ethr =  8.93E-10,  avg # of iterations =  3.0

     negative rho (up, down):  1.673E-01 1.673E-01

     total cpu time spent up to now is    20125.0 secs

     total energy              =   -4259.06736503 Ry
     estimated scf accuracy    <       0.00001151 Ry

     total magnetization       =     0.16 Bohr mag/cell
     absolute magnetization    =    13.96 Bohr mag/cell

     iteration # 35     ecut=    30.00 Ry     beta= 0.40
     CG style diagonalization
     ethr =  8.93E-10,  avg # of iterations =  3.3

     negative rho (up, down):  1.673E-01 1.673E-01

     total cpu time spent up to now is    20739.6 secs

     total energy              =   -4259.06736624 Ry
     estimated scf accuracy    <       0.00000452 Ry

     total magnetization       =     0.10 Bohr mag/cell
     absolute magnetization    =    13.96 Bohr mag/cell

     iteration # 36     ecut=    30.00 Ry     beta= 0.40
     CG style diagonalization
     ethr =  8.93E-10,  avg # of iterations =  3.2

     negative rho (up, down):  1.673E-01 1.673E-01

     total cpu time spent up to now is    21336.9 secs

     total energy              =   -4259.06736879 Ry
     estimated scf accuracy    <       0.00000075 Ry

     total magnetization       =     0.05 Bohr mag/cell
     absolute magnetization    =    13.96 Bohr mag/cell

     iteration # 37     ecut=    30.00 Ry     beta= 0.40
     CG style diagonalization
     ethr =  1.91E-10,  avg # of iterations =  3.6

     negative rho (up, down):  1.673E-01 1.673E-01

     total cpu time spent up to now is    22018.8 secs

     total energy              =   -4259.06737107 Ry
     estimated scf accuracy    <       0.00000022 Ry

     total magnetization       =     0.02 Bohr mag/cell
     absolute magnetization    =    13.95 Bohr mag/cell

     iteration # 38     ecut=    30.00 Ry     beta= 0.40
     CG style diagonalization
     ethr =  5.61E-11,  avg # of iterations =  3.5

     negative rho (up, down):  1.673E-01 1.673E-01

     total cpu time spent up to now is    22681.4 secs

     total energy              =   -4259.06737051 Ry
     estimated scf accuracy    <       0.00000127 Ry

     total magnetization       =     0.02 Bohr mag/cell
     absolute magnetization    =    13.94 Bohr mag/cell

     iteration # 39     ecut=    30.00 Ry     beta= 0.40
     CG style diagonalization
     ethr =  5.61E-11,  avg # of iterations =  3.6

     negative rho (up, down):  1.673E-01 1.673E-01

     Magnetic moment per site:
     atom:    1    charge:   11.5635    magn:    0.0000    constr:    0.0000
     atom:    2    charge:   11.5635    magn:    0.0000    constr:    0.0000
     atom:    3    charge:   11.5635    magn:    0.0000    constr:    0.0000
     atom:    4    charge:   11.5635    magn:    0.0000    constr:    0.0000
     atom:    5    charge:   11.5635    magn:    0.0000    constr:    0.0000
     atom:    6    charge:   11.5635    magn:    0.0000    constr:    0.0000
     atom:    7    charge:   11.5635    magn:    0.0000    constr:    0.0000
     atom:    8    charge:   11.5635    magn:    0.0000    constr:    0.0000
     atom:    9    charge:   12.9285    magn:    1.4461    constr:    0.0000
     atom:   10    charge:   12.9285    magn:    1.4461    constr:    0.0000
     atom:   11    charge:   12.9286    magn:   -1.4458    constr:    0.0000
     atom:   12    charge:   12.9286    magn:   -1.4458    constr:    0.0000
     atom:   13    charge:   12.9285    magn:    1.4461    constr:    0.0000
     atom:   14    charge:   12.9285    magn:    1.4461    constr:    0.0000
     atom:   15    charge:   12.9286    magn:   -1.4458    constr:    0.0000
     atom:   16    charge:   12.9286    magn:   -1.4458    constr:    0.0000
     atom:   17    charge:    5.2057    magn:    0.0486    constr:    0.0000
     atom:   18    charge:    5.2084    magn:    0.0000    constr:    0.0000
     atom:   19    charge:    5.2084    magn:    0.0000    constr:    0.0000
     atom:   20    charge:    5.2057    magn:    0.0486    constr:    0.0000
     atom:   21    charge:    5.2057    magn:   -0.0485    constr:    0.0000
     atom:   22    charge:    5.2057    magn:   -0.0485    constr:    0.0000
     atom:   23    charge:    5.2057    magn:    0.0486    constr:    0.0000
     atom:   24    charge:    5.2057    magn:    0.0486    constr:    0.0000
     atom:   25    charge:    5.2057    magn:   -0.0485    constr:    0.0000
     atom:   26    charge:    5.2057    magn:   -0.0485    constr:    0.0000
     atom:   27    charge:    5.2084    magn:    0.0000    constr:    0.0000
     atom:   28    charge:    5.2084    magn:    0.0000    constr:    0.0000
     atom:   29    charge:    5.2084    magn:    0.0000    constr:    0.0000
     atom:   30    charge:    5.2084    magn:    0.0000    constr:    0.0000
     atom:   31    charge:    5.2084    magn:    0.0000    constr:    0.0000
     atom:   32    charge:    5.2084    magn:    0.0000    constr:    0.0000
     atom:   33    charge:    5.2084    magn:    0.0000    constr:    0.0000
     atom:   34    charge:    5.2084    magn:    0.0000    constr:    0.0000
     atom:   35    charge:    5.2084    magn:    0.0000    constr:    0.0000
     atom:   36    charge:    5.2084    magn:    0.0000    constr:    0.0000
     atom:   37    charge:    5.2084    magn:    0.0000    constr:    0.0000
     atom:   38    charge:    5.2084    magn:    0.0000    constr:    0.0000
     atom:   39    charge:    5.2084    magn:    0.0000    constr:    0.0000
     atom:   40    charge:    5.2084    magn:    0.0000    constr:    0.0000

     total cpu time spent up to now is    23316.1 secs

     End of self-consistent calculation

 ------ SPIN UP ------------


          k = 0.0000 0.0000 0.0000 (  8121 PWs)   bands (ev):

   -73.6825 -73.6825 -73.6823 -73.6817 -71.7668 -71.7667 -71.7665 -71.7661
   -39.7463 -39.7441 -39.7425 -39.7415 -39.7309 -39.7309 -39.7306 -39.7306
   -39.7298 -39.7298 -39.7253 -39.7253 -37.9197 -37.9197 -37.9193 -37.9193
   -37.9186 -37.9186 -37.9142 -37.9142 -37.7943 -37.7913 -37.7898 -37.7897
    -9.1960  -9.1880  -9.1841  -9.1830  -9.1825  -9.1728  -9.1704  -9.1704
    -9.1603  -9.1500  -9.1500  -9.1238  -9.1238  -9.1115  -9.1106  -9.1106
    -9.1070  -9.1070  -9.1053  -9.1053  -9.1008  -9.0958  -9.0950  -9.0950
    -9.0942  -9.0939  -9.0931  -9.0931  -9.0923  -9.0793  -9.0774  -9.0671
    -9.0671  -9.0659  -9.0644  -9.0578  -9.0544  -9.0457  -9.0457  -9.0390
    -5.8582  -4.9380  -4.8960  -4.8844  -4.1202  -4.0879  -4.0879  -4.0204
    -3.9895  -3.9861  -3.9353  -3.8553  -3.8553  -3.8551  -3.8551  -3.8368
    -3.5972  -3.5703  -3.5703  -3.5348  -3.4913  -3.4769  -3.4732  -3.4571
     2.8641   2.8641   2.8659   3.5717   3.5723   3.5723   4.5107   4.8023
     6.7422   6.7422   6.7507   6.8233   7.5013   7.5063   7.5196   7.9333
     7.9465   8.0419   8.0957   8.0957   8.1073   8.3839   8.4947   8.5251
     8.6091   8.6545   9.2347   9.3666   9.3666   9.3787   9.3787   9.3811
     9.3811   9.4040   9.4040   9.4051   9.4112   9.4318   9.4318   9.4326
     9.4424   9.4424   9.4488   9.5178   9.8564   9.9620   9.9620  10.0388
    10.0388  10.2279  10.2581  10.2694  10.2694  10.5563  10.6684  10.6684
    11.1662  11.1662  11.1961  11.5635  11.5635  11.5942  12.0433  12.0433
    12.0451  12.1587  12.1587  12.1760  12.1802  12.1802  12.1936  12.7424
    12.7424  12.7673  12.8757  12.9175  12.9175  12.9264  12.9487  12.9487
    12.9574  12.9841  12.9841  13.0249  13.0249  13.0494  13.9835  13.9835
    14.0380  14.2085  14.3065  14.4077  14.4077  14.4187  14.7441  14.7488
    14.8520  14.8829  14.8927  15.0579  15.1083  15.1195  15.1195  15.1988
    15.1988  15.3764  15.5251  15.5251  15.5392  15.5785  15.6119  15.8640
    15.8814  15.8814  16.1454  16.6451  16.6583  16.6650  16.7834  16.8935
    17.2118  17.7312  17.7312  17.7417  17.7529  17.7529  17.7564  18.4162
    18.4243  18.4243  18.4389  18.4450  18.4450  19.5110  19.5110  19.5209
    19.8839  19.8839  19.9062

     occupation numbers 
     1.0000   1.0000   1.0000   1.0000   1.0000   1.0000   1.0000   1.0000
     1.0000   1.0000   1.0000   1.0000   1.0000   1.0000   1.0000   1.0000
     1.0000   1.0000   1.0000   1.0000   1.0000   1.0000   1.0000   1.0000
     1.0000   1.0000   1.0000   1.0000   1.0000   1.0000   1.0000   1.0000
     1.0000   1.0000   1.0000   1.0000   1.0000   1.0000   1.0000   1.0000
     1.0000   1.0000   1.0000   1.0000   1.0000   1.0000   1.0000   1.0000
     1.0000   1.0000   1.0000   1.0000   1.0000   1.0000   1.0000   1.0000
     1.0000   1.0000   1.0000   1.0000   1.0000   1.0000   1.0000   1.0000
     1.0000   1.0000   1.0000   1.0000   1.0000   1.0000   1.0000   1.0000
     1.0000   1.0000   1.0000   1.0000   1.0000   1.0000   1.0000   1.0000
     1.0000   1.0000   1.0000   1.0000   1.0000   1.0000   1.0000   1.0000
     1.0000   1.0000   1.0000   1.0000   1.0000   1.0000   1.0000   1.0000
     1.0000   1.0000   1.0000   1.0000   1.0000   1.0000   1.0000   1.0000
     1.0000   1.0000   1.0000   1.0000   1.0000   1.0000   1.0000   1.0000
     1.0000   1.0000   1.0000   1.0000   1.0000   1.0000   1.0000   1.0000
     1.0000   1.0000   1.0000   1.0000   1.0000   1.0000   1.0000   1.0000
     1.0000   1.0000   1.0000   1.0000   1.0000   1.0000   1.0000   1.0000
     1.0000   1.0000   1.0000   1.0000   1.0000   1.0000   1.0000   1.0000
     1.0000   1.0000   1.0000   1.0000   1.0000   1.0000   1.0000   1.0000
     1.0000   1.0000   1.0000   1.0000   1.0000   1.0000   1.0000   1.0000
     1.0000   1.0000   1.0000   1.0000   1.0000   1.0000   1.0000   1.0000
     1.0000   1.0000   1.0000   1.0000   1.0000   1.0000   1.0000   1.0000
     1.0000   1.0000   1.0000   1.0000   1.0000   1.0000   1.0000   1.0000
     1.0000   1.0000   1.0000   1.0000   1.0000   1.0000   1.0000   1.0000
     1.0001   1.0005   1.0007   1.0315   1.0287   1.0200   1.0200   0.7928
     0.7928  -0.0166  -0.0074  -0.0074  -0.0052  -0.0017  -0.0005  -0.0000
    -0.0000  -0.0000  -0.0000  -0.0000  -0.0000  -0.0000  -0.0000  -0.0000
    -0.0000  -0.0000  -0.0000  -0.0000  -0.0000  -0.0000  -0.0000  -0.0000
    -0.0000  -0.0000  -0.0000  -0.0000  -0.0000  -0.0000  -0.0000  -0.0000
    -0.0000  -0.0000  -0.0000

          k = 0.0000 0.0000 0.3333 (  8021 PWs)   bands (ev):

   -73.6821 -73.6821 -73.6820 -73.6816 -71.7664 -71.7664 -71.7664 -71.7660
   -39.7435 -39.7428 -39.7407 -39.7392 -39.7290 -39.7290 -39.7280 -39.7279
   -39.7277 -39.7277 -39.7256 -39.7256 -37.9178 -37.9178 -37.9168 -37.9168
   -37.9166 -37.9166 -37.9145 -37.9145 -37.7915 -37.7907 -37.7883 -37.7869
    -9.1927  -9.1863  -9.1810  -9.1672  -9.1627  -9.1610  -9.1547  -9.1516
    -9.1516  -9.1413  -9.1413  -9.1288  -9.1288  -9.1187  -9.1185  -9.1169
    -9.1129  -9.1129  -9.1067  -9.1067  -9.1058  -9.1058  -9.0963  -9.0963
    -9.0936  -9.0880  -9.0880  -9.0869  -9.0853  -9.0787  -9.0779  -9.0741
    -9.0741  -9.0729  -9.0713  -9.0634  -9.0634  -9.0572  -9.0570  -9.0553
    -5.6914  -5.2557  -4.7846  -4.7325  -4.3981  -4.3512  -4.0332  -4.0332
    -3.9240  -3.9170  -3.9170  -3.8446  -3.7856  -3.7856  -3.6974  -3.6654
    -3.6433  -3.6433  -3.6076  -3.5529  -3.5514  -3.4956  -3.4825  -3.4655
     3.0432   3.0432   3.1270   3.3980   3.3980   3.7775   3.8564   4.3651
     7.0810   7.1219   7.1219   7.4217   7.6920   7.7778   7.8425   7.9136
     8.0304   8.1508   8.1508   8.2607   8.2843   8.2843   8.4102   8.4676
     8.4954   8.5048   8.6589   8.7320   8.7320   8.8298   8.9363   9.0663
     9.2032   9.2032   9.2042   9.2042   9.3809   9.5131   9.5131   9.5940
     9.6331   9.6800   9.6895   9.7309   9.7309   9.9174   9.9914  10.0322
    10.2265  10.2265  10.7388  10.7388  11.0864  11.0864  11.1718  11.2167
    11.2167  11.2648  11.2910  11.3763  11.3763  11.5027  11.5193  11.5246
    11.5246  11.6664  11.6664  11.8834  11.9794  11.9794  12.1051  12.1051
    12.3187  12.3187  12.5515  12.5515  12.6343  12.6343  12.8916  12.9224
    12.9456  12.9621  13.4855  13.4855  13.5874  13.5874  13.8402  13.8402
    14.0752  14.1526  14.1888  14.1888  14.7485  14.7553  15.0382  15.0776
    15.1270  15.1270  15.1998  15.2334  15.3142  15.3142  15.3210  15.3310
    15.3310  15.3522  15.5587  15.5874  15.6901  15.6901  15.7048  15.7732
    15.8160  16.2147  16.4073  16.9537  17.0957  17.1093  17.1286  17.1380
    17.4707  17.8114  17.8821  17.8821  17.9726  17.9900  18.1599  18.1599
    18.1797  18.2183  18.2183  18.4008  18.7633  18.7633  19.0110  19.0110
    19.0829  19.4878  19.4878

     occupation numbers 
     1.0000   1.0000   1.0000   1.0000   1.0000   1.0000   1.0000   1.0000
     1.0000   1.0000   1.0000   1.0000   1.0000   1.0000   1.0000   1.0000
     1.0000   1.0000   1.0000   1.0000   1.0000   1.0000   1.0000   1.0000
     1.0000   1.0000   1.0000   1.0000   1.0000   1.0000   1.0000   1.0000
     1.0000   1.0000   1.0000   1.0000   1.0000   1.0000   1.0000   1.0000
     1.0000   1.0000   1.0000   1.0000   1.0000   1.0000   1.0000   1.0000
     1.0000   1.0000   1.0000   1.0000   1.0000   1.0000   1.0000   1.0000
     1.0000   1.0000   1.0000   1.0000   1.0000   1.0000   1.0000   1.0000
     1.0000   1.0000   1.0000   1.0000   1.0000   1.0000   1.0000   1.0000
     1.0000   1.0000   1.0000   1.0000   1.0000   1.0000   1.0000   1.0000
     1.0000   1.0000   1.0000   1.0000   1.0000   1.0000   1.0000   1.0000
     1.0000   1.0000   1.0000   1.0000   1.0000   1.0000   1.0000   1.0000
     1.0000   1.0000   1.0000   1.0000   1.0000   1.0000   1.0000   1.0000
     1.0000   1.0000   1.0000   1.0000   1.0000   1.0000   1.0000   1.0000
     1.0000   1.0000   1.0000   1.0000   1.0000   1.0000   1.0000   1.0000
     1.0000   1.0000   1.0000   1.0000   1.0000   1.0000   1.0000   1.0000
     1.0000   1.0000   1.0000   1.0000   1.0000   1.0000   1.0000   1.0000
     1.0000   1.0000   1.0000   1.0000   1.0000   1.0000   1.0000   1.0000
     1.0000   1.0000   1.0000   1.0000   1.0000   1.0000   1.0000   1.0000
     1.0000   1.0000   1.0000   1.0000   1.0000   1.0000   1.0000   1.0000
     1.0000   1.0000   1.0000   1.0000   1.0000   1.0000   1.0000   1.0000
     1.0000   1.0000   1.0000   1.0000   1.0000   1.0000   1.0000   1.0000
     1.0000   1.0000   1.0000   1.0000   1.0000   1.0000   1.0000   1.0000
     1.0000   1.0000   1.0000   1.0000   1.0000   1.0000   1.0252   1.0352
     1.0115   1.0115   0.7879   0.5998   0.1440   0.1440   0.1163   0.0805
     0.0805   0.0226  -0.0030  -0.0012  -0.0000  -0.0000  -0.0000  -0.0000
    -0.0000  -0.0000  -0.0000  -0.0000  -0.0000  -0.0000  -0.0000  -0.0000
    -0.0000  -0.0000  -0.0000  -0.0000  -0.0000  -0.0000  -0.0000  -0.0000
    -0.0000  -0.0000  -0.0000  -0.0000  -0.0000  -0.0000  -0.0000  -0.0000
    -0.0000  -0.0000  -0.0000

          k = 0.0000 0.3333 0.3333 (  8042 PWs)   bands (ev):

   -73.6822 -73.6821 -73.6821 -73.6819 -71.7665 -71.7664 -71.7664 -71.7662
   -39.7439 -39.7430 -39.7417 -39.7403 -39.7286 -39.7285 -39.7283 -39.7281
   -39.7280 -39.7278 -39.7278 -39.7265 -37.9174 -37.9173 -37.9171 -37.9170
   -37.9168 -37.9167 -37.9166 -37.9155 -37.7919 -37.7909 -37.7892 -37.7879
    -9.1720  -9.1680  -9.1670  -9.1594  -9.1554  -9.1537  -9.1495  -9.1466
    -9.1434  -9.1360  -9.1334  -9.1293  -9.1262  -9.1247  -9.1161  -9.1140
    -9.1133  -9.1117  -9.1090  -9.1062  -9.1050  -9.1045  -9.1023  -9.0998
    -9.0994  -9.0987  -9.0940  -9.0875  -9.0865  -9.0857  -9.0849  -9.0847
    -9.0795  -9.0795  -9.0739  -9.0736  -9.0725  -9.0711  -9.0611  -9.0581
    -5.5275  -5.1041  -5.0989  -4.7020  -4.6128  -4.2544  -4.2513  -3.9745
    -3.9635  -3.8509  -3.8508  -3.7979  -3.7828  -3.7787  -3.7141  -3.6218
    -3.6181  -3.5878  -3.5632  -3.5575  -3.5525  -3.5109  -3.5037  -3.4988
     3.2110   3.2162   3.2174   3.3524   3.5791   3.5793   3.6193   4.0556
     7.2031   7.2479   7.5625   7.6371   7.6418   7.9194   8.0341   8.0535
     8.0616   8.2410   8.2606   8.2722   8.2849   8.2854   8.3838   8.4214
     8.4356   8.6030   8.6456   8.6949   8.7095   8.7401   8.7633   8.8556
     8.8794   8.8825   8.9111   8.9151   9.2555   9.3360   9.4880   9.5954
     9.6098   9.7306   9.7369   9.9559  10.0905  10.1889  10.2078  10.2859
    10.2921  10.4366  10.4482  10.4735  10.8482  10.9259  10.9344  11.0114
    11.1230  11.3004  11.3299  11.4896  11.4925  11.5198  11.5426  11.5973
    11.7172  11.7448  11.7602  11.7800  11.7917  11.9180  11.9321  11.9488
    12.2165  12.2263  12.4067  12.4250  12.4336  12.6191  12.6295  12.6818
    13.4213  13.4243  13.4487  13.5197  13.5542  13.5544  13.7973  13.8915
    13.9172  13.9725  13.9895  14.0912  14.9171  14.9844  15.0986  15.1371
    15.1448  15.1560  15.1996  15.2348  15.2720  15.3363  15.3459  15.3854
    15.3873  15.4781  15.4834  15.5477  15.6922  15.7952  16.3870  16.3976
    16.3998  16.4800  16.7108  16.8451  16.9665  17.2300  17.4367  17.4751
    17.4755  17.5107  17.6146  17.6217  17.6752  17.8027  18.0474  18.1131
    18.2739  18.3344  18.3347  18.4104  18.4231  18.6019  18.6082  18.7467
    18.8460  19.0847  19.2769

     occupation numbers 
     1.0000   1.0000   1.0000   1.0000   1.0000   1.0000   1.0000   1.0000
     1.0000   1.0000   1.0000   1.0000   1.0000   1.0000   1.0000   1.0000
     1.0000   1.0000   1.0000   1.0000   1.0000   1.0000   1.0000   1.0000
     1.0000   1.0000   1.0000   1.0000   1.0000   1.0000   1.0000   1.0000
     1.0000   1.0000   1.0000   1.0000   1.0000   1.0000   1.0000   1.0000
     1.0000   1.0000   1.0000   1.0000   1.0000   1.0000   1.0000   1.0000
     1.0000   1.0000   1.0000   1.0000   1.0000   1.0000   1.0000   1.0000
     1.0000   1.0000   1.0000   1.0000   1.0000   1.0000   1.0000   1.0000
     1.0000   1.0000   1.0000   1.0000   1.0000   1.0000   1.0000   1.0000
     1.0000   1.0000   1.0000   1.0000   1.0000   1.0000   1.0000   1.0000
     1.0000   1.0000   1.0000   1.0000   1.0000   1.0000   1.0000   1.0000
     1.0000   1.0000   1.0000   1.0000   1.0000   1.0000   1.0000   1.0000
     1.0000   1.0000   1.0000   1.0000   1.0000   1.0000   1.0000   1.0000
     1.0000   1.0000   1.0000   1.0000   1.0000   1.0000   1.0000   1.0000
     1.0000   1.0000   1.0000   1.0000   1.0000   1.0000   1.0000   1.0000
     1.0000   1.0000   1.0000   1.0000   1.0000   1.0000   1.0000   1.0000
     1.0000   1.0000   1.0000   1.0000   1.0000   1.0000   1.0000   1.0000
     1.0000   1.0000   1.0000   1.0000   1.0000   1.0000   1.0000   1.0000
     1.0000   1.0000   1.0000   1.0000   1.0000   1.0000   1.0000   1.0000
     1.0000   1.0000   1.0000   1.0000   1.0000   1.0000   1.0000   1.0000
     1.0000   1.0000   1.0000   1.0000   1.0000   1.0000   1.0000   1.0000
     1.0000   1.0000   1.0000   1.0000   1.0000   1.0000   1.0000   1.0000
     1.0000   1.0000   1.0000   1.0000   1.0000   1.0000   1.0000   1.0000
     1.0000   1.0000   1.0000   1.0000   1.0015   1.0094   1.0331   0.9966
     0.9819   0.9555   0.7889   0.5913   0.3625   0.0637   0.0372  -0.0249
    -0.0263  -0.0194  -0.0177  -0.0041  -0.0000  -0.0000  -0.0000  -0.0000
    -0.0000  -0.0000  -0.0000  -0.0000  -0.0000  -0.0000  -0.0000  -0.0000
    -0.0000  -0.0000  -0.0000  -0.0000  -0.0000  -0.0000  -0.0000  -0.0000
    -0.0000  -0.0000  -0.0000  -0.0000  -0.0000  -0.0000  -0.0000  -0.0000
    -0.0000  -0.0000  -0.0000

          k = 0.3333 0.3333 0.3333 (  8018 PWs)   bands (ev):

   -73.6822 -73.6821 -73.6818 -73.6818 -71.7665 -71.7664 -71.7662 -71.7662
   -39.7443 -39.7420 -39.7418 -39.7399 -39.7290 -39.7289 -39.7285 -39.7283
   -39.7272 -39.7263 -39.7261 -39.7259 -37.9178 -37.9177 -37.9174 -37.9171
   -37.9161 -37.9153 -37.9151 -37.9148 -37.7922 -37.7898 -37.7895 -37.7875
    -9.1551  -9.1519  -9.1509  -9.1438  -9.1423  -9.1415  -9.1392  -9.1370
    -9.1368  -9.1336  -9.1325  -9.1206  -9.1202  -9.1191  -9.1191  -9.1151
    -9.1150  -9.1095  -9.1091  -9.1088  -9.1075  -9.1062  -9.1049  -9.1039
    -9.1036  -9.1027  -9.1027  -9.1025  -9.1004  -9.0958  -9.0906  -9.0862
    -9.0846  -9.0833  -9.0830  -9.0825  -9.0810  -9.0754  -9.0748  -9.0683
    -5.3662  -4.9712  -4.9470  -4.9306  -4.5805  -4.5674  -4.5475  -4.2280
    -3.7714  -3.7534  -3.7530  -3.7399  -3.7086  -3.6987  -3.6263  -3.6161
    -3.6051  -3.5989  -3.5847  -3.5647  -3.5487  -3.5473  -3.5248  -3.5116
     3.3101   3.3151   3.3181   3.4973   3.4985   3.4992   3.5206   3.8528
     7.5000   7.5109   7.6423   7.9284   7.9648   7.9778   8.1199   8.1666
     8.1796   8.2038   8.2389   8.2414   8.2456   8.2804   8.2846   8.2928
     8.3158   8.3289   8.3558   8.4110   8.5467   8.5692   8.5846   8.8317
     8.8735   8.8737   8.9723   9.0804   9.1622   9.5087   9.5215   9.5286
     9.5320   9.5788   9.5800   9.6151   9.9307  10.0352  10.0707  10.1928
    10.2151  10.6083  10.7208  10.7918  10.8195  10.8204  10.8286  11.3410
    11.4607  11.4716  11.5206  11.6448  11.6560  11.6566  11.6639  11.6758
    11.7393  11.8077  11.8085  11.8513  11.8610  11.8650  11.8881  11.9596
    11.9698  11.9856  12.3241  12.3290  12.4385  12.4567  12.4651  12.5427
    13.4271  13.4855  13.5645  13.6198  13.6207  13.6486  13.6744  13.7638
    13.8968  13.9046  13.9112  13.9999  14.9413  14.9526  15.0505  15.0601
    15.0607  15.1241  15.2159  15.2787  15.2795  15.2844  15.3574  15.3641
    15.5617  15.6296  15.8801  15.8999  16.0753  16.1505  16.2204  16.2395
    16.2548  16.5028  16.6569  16.6572  16.7452  16.8370  16.9456  16.9827
    17.2160  17.4382  17.4598  17.7781  17.9744  17.9910  18.0846  18.1096
    18.2921  18.3200  18.4828  18.5100  18.5216  18.7990  18.8065  18.8196
    18.8574  18.8722  18.9521

     occupation numbers 
     1.0000   1.0000   1.0000   1.0000   1.0000   1.0000   1.0000   1.0000
     1.0000   1.0000   1.0000   1.0000   1.0000   1.0000   1.0000   1.0000
     1.0000   1.0000   1.0000   1.0000   1.0000   1.0000   1.0000   1.0000
     1.0000   1.0000   1.0000   1.0000   1.0000   1.0000   1.0000   1.0000
     1.0000   1.0000   1.0000   1.0000   1.0000   1.0000   1.0000   1.0000
     1.0000   1.0000   1.0000   1.0000   1.0000   1.0000   1.0000   1.0000
     1.0000   1.0000   1.0000   1.0000   1.0000   1.0000   1.0000   1.0000
     1.0000   1.0000   1.0000   1.0000   1.0000   1.0000   1.0000   1.0000
     1.0000   1.0000   1.0000   1.0000   1.0000   1.0000   1.0000   1.0000
     1.0000   1.0000   1.0000   1.0000   1.0000   1.0000   1.0000   1.0000
     1.0000   1.0000   1.0000   1.0000   1.0000   1.0000   1.0000   1.0000
     1.0000   1.0000   1.0000   1.0000   1.0000   1.0000   1.0000   1.0000
     1.0000   1.0000   1.0000   1.0000   1.0000   1.0000   1.0000   1.0000
     1.0000   1.0000   1.0000   1.0000   1.0000   1.0000   1.0000   1.0000
     1.0000   1.0000   1.0000   1.0000   1.0000   1.0000   1.0000   1.0000
     1.0000   1.0000   1.0000   1.0000   1.0000   1.0000   1.0000   1.0000
     1.0000   1.0000   1.0000   1.0000   1.0000   1.0000   1.0000   1.0000
     1.0000   1.0000   1.0000   1.0000   1.0000   1.0000   1.0000   1.0000
     1.0000   1.0000   1.0000   1.0000   1.0000   1.0000   1.0000   1.0000
     1.0000   1.0000   1.0000   1.0000   1.0000   1.0000   1.0000   1.0000
     1.0000   1.0000   1.0000   1.0000   1.0000   1.0000   1.0000   1.0000
     1.0000   1.0000   1.0000   1.0000   1.0000   1.0000   1.0000   1.0000
     1.0000   1.0000   1.0000   1.0000   1.0000   1.0000   1.0000   1.0000
     1.0000   1.0000   1.0000   1.0000   1.0031   1.0042   1.0293   1.0321
     1.0322   1.0151   0.7027   0.3232   0.3185   0.2908   0.0119   0.0000
    -0.0028  -0.0003  -0.0000  -0.0000  -0.0000  -0.0000  -0.0000  -0.0000
    -0.0000  -0.0000  -0.0000  -0.0000  -0.0000  -0.0000  -0.0000  -0.0000
    -0.0000  -0.0000  -0.0000  -0.0000  -0.0000  -0.0000  -0.0000  -0.0000
    -0.0000  -0.0000  -0.0000  -0.0000  -0.0000  -0.0000  -0.0000  -0.0000
    -0.0000  -0.0000  -0.0000

          k = 0.3333 0.0000 0.0000 (  8021 PWs)   bands (ev):

   -73.6823 -73.6820 -73.6819 -73.6817 -71.7666 -71.7663 -71.7662 -71.7661
   -39.7456 -39.7434 -39.7401 -39.7390 -39.7288 -39.7283 -39.7279 -39.7279
   -39.7272 -39.7270 -39.7259 -39.7257 -37.9176 -37.9171 -37.9168 -37.9166
   -37.9161 -37.9160 -37.9149 -37.9147 -37.7936 -37.7915 -37.7875 -37.7865
    -9.1801  -9.1754  -9.1739  -9.1737  -9.1641  -9.1618  -9.1608  -9.1574
    -9.1516  -9.1485  -9.1362  -9.1307  -9.1304  -9.1276  -9.1252  -9.1177
    -9.1176  -9.1129  -9.1059  -9.1016  -9.0999  -9.0983  -9.0945  -9.0944
    -9.0936  -9.0935  -9.0895  -9.0879  -9.0862  -9.0861  -9.0844  -9.0744
    -9.0741  -9.0722  -9.0705  -9.0666  -9.0655  -9.0616  -9.0447  -9.0421
    -5.6925  -5.2620  -4.7581  -4.7435  -4.3780  -4.3604  -4.0676  -4.0332
    -3.9633  -3.9172  -3.8895  -3.8121  -3.8003  -3.7855  -3.6813  -3.6685
    -3.6432  -3.6399  -3.6201  -3.5408  -3.5384  -3.5093  -3.4789  -3.4747
     3.0428   3.0447   3.1251   3.3973   3.3986   3.7774   3.8550   4.3645
     7.0782   7.1228   7.1308   7.4115   7.7202   7.7430   7.8337   7.9224
     7.9699   8.1710   8.1771   8.2627   8.2752   8.3120   8.4227   8.4342
     8.5494   8.5627   8.6362   8.7196   8.7330   8.7394   9.0026   9.0468
     9.1942   9.2056   9.2071   9.2152   9.5137   9.5167   9.5255   9.5341
     9.5506   9.6044   9.7365   9.7385   9.8607   9.9249   9.9465   9.9600
    10.2283  10.2298  10.7423  10.7645  10.9743  11.1041  11.1623  11.1775
    11.2204  11.2681  11.2816  11.3962  11.4423  11.4701  11.5119  11.5528
    11.5790  11.6352  11.6505  11.8585  11.9628  11.9800  12.0873  12.1091
    12.3173  12.3293  12.5615  12.5672  12.6458  12.6471  12.9136  12.9368
    12.9957  13.0174  13.4275  13.4709  13.4742  13.5546  13.9779  14.0050
    14.0242  14.0485  14.1947  14.2499  14.4243  14.4627  14.9980  15.0414
    15.0669  15.1392  15.1708  15.1726  15.3590  15.3748  15.4305  15.4884
    15.5035  15.5180  15.5429  15.5543  15.6339  15.7278  15.7790  15.8033
    16.1897  16.2011  16.5537  16.6815  17.1009  17.1168  17.1211  17.1226
    17.1387  17.5012  17.8057  17.8612  17.8748  17.9784  17.9977  18.1745
    18.1780  18.1994  18.2028  18.3801  18.7663  18.7844  19.0154  19.0222
    19.0740  19.4884  19.5092

     occupation numbers 
     1.0000   1.0000   1.0000   1.0000   1.0000   1.0000   1.0000   1.0000
     1.0000   1.0000   1.0000   1.0000   1.0000   1.0000   1.0000   1.0000
     1.0000   1.0000   1.0000   1.0000   1.0000   1.0000   1.0000   1.0000
     1.0000   1.0000   1.0000   1.0000   1.0000   1.0000   1.0000   1.0000
     1.0000   1.0000   1.0000   1.0000   1.0000   1.0000   1.0000   1.0000
     1.0000   1.0000   1.0000   1.0000   1.0000   1.0000   1.0000   1.0000
     1.0000   1.0000   1.0000   1.0000   1.0000   1.0000   1.0000   1.0000
     1.0000   1.0000   1.0000   1.0000   1.0000   1.0000   1.0000   1.0000
     1.0000   1.0000   1.0000   1.0000   1.0000   1.0000   1.0000   1.0000
     1.0000   1.0000   1.0000   1.0000   1.0000   1.0000   1.0000   1.0000
     1.0000   1.0000   1.0000   1.0000   1.0000   1.0000   1.0000   1.0000
     1.0000   1.0000   1.0000   1.0000   1.0000   1.0000   1.0000   1.0000
     1.0000   1.0000   1.0000   1.0000   1.0000   1.0000   1.0000   1.0000
     1.0000   1.0000   1.0000   1.0000   1.0000   1.0000   1.0000   1.0000
     1.0000   1.0000   1.0000   1.0000   1.0000   1.0000   1.0000   1.0000
     1.0000   1.0000   1.0000   1.0000   1.0000   1.0000   1.0000   1.0000
     1.0000   1.0000   1.0000   1.0000   1.0000   1.0000   1.0000   1.0000
     1.0000   1.0000   1.0000   1.0000   1.0000   1.0000   1.0000   1.0000
     1.0000   1.0000   1.0000   1.0000   1.0000   1.0000   1.0000   1.0000
     1.0000   1.0000   1.0000   1.0000   1.0000   1.0000   1.0000   1.0000
     1.0000   1.0000   1.0000   1.0000   1.0000   1.0000   1.0000   1.0000
     1.0000   1.0000   1.0000   1.0000   1.0000   1.0000   1.0000   1.0000
     1.0000   1.0000   1.0000   1.0000   1.0000   1.0000   1.0000   1.0000
     1.0000   1.0000   1.0000   1.0000   1.0000   1.0000   1.0126   1.0263
     1.0337   0.9928   0.9102   0.9041   0.0088  -0.0147  -0.0340  -0.0162
    -0.0120  -0.0087  -0.0047  -0.0034  -0.0002  -0.0000  -0.0000  -0.0000
    -0.0000  -0.0000  -0.0000  -0.0000  -0.0000  -0.0000  -0.0000  -0.0000
    -0.0000  -0.0000  -0.0000  -0.0000  -0.0000  -0.0000  -0.0000  -0.0000
    -0.0000  -0.0000  -0.0000  -0.0000  -0.0000  -0.0000  -0.0000  -0.0000
    -0.0000  -0.0000  -0.0000

          k = 0.3333-0.3333 0.0000 (  8042 PWs)   bands (ev):

   -73.6822 -73.6821 -73.6821 -73.6819 -71.7665 -71.7664 -71.7664 -71.7662
   -39.7449 -39.7443 -39.7407 -39.7403 -39.7297 -39.7283 -39.7282 -39.7281
   -39.7273 -39.7272 -39.7269 -39.7265 -37.9185 -37.9171 -37.9171 -37.9170
   -37.9162 -37.9160 -37.9158 -37.9154 -37.7930 -37.7924 -37.7881 -37.7877
    -9.1601  -9.1585  -9.1582  -9.1567  -9.1563  -9.1540  -9.1519  -9.1483
    -9.1441  -9.1429  -9.1347  -9.1228  -9.1221  -9.1211  -9.1188  -9.1174
    -9.1170  -9.1158  -9.1154  -9.1147  -9.1141  -9.1131  -9.1127  -9.1121
    -9.0970  -9.0968  -9.0917  -9.0883  -9.0867  -9.0866  -9.0866  -9.0818
    -9.0791  -9.0736  -9.0735  -9.0734  -9.0718  -9.0587  -9.0582  -9.0504
    -5.5286  -5.1251  -5.0827  -4.7053  -4.5982  -4.2398  -4.2336  -4.0123
    -3.9421  -3.9296  -3.8327  -3.7858  -3.7763  -3.7597  -3.7362  -3.6340
    -3.5876  -3.5833  -3.5607  -3.5536  -3.5526  -3.5127  -3.5094  -3.4963
     3.2102   3.2124   3.2215   3.3512   3.5780   3.5814   3.6188   4.0556
     7.1945   7.2477   7.5579   7.5853   7.6780   7.9061   7.9667   8.0598
     8.1579   8.1768   8.2446   8.2472   8.3158   8.3986   8.3990   8.4337
     8.4379   8.6091   8.6249   8.6886   8.7256   8.7714   8.7855   8.8018
     8.8572   8.8610   8.9012   8.9103   9.2613   9.3620   9.4687   9.6181
     9.6437   9.6478   9.8030   9.9174  10.0777  10.2164  10.2821  10.2920
    10.3631  10.3757  10.3973  10.4241  10.8296  10.8955  10.9231  11.0415
    11.1117  11.3209  11.3318  11.4758  11.5493  11.5513  11.5553  11.6123
    11.6608  11.7379  11.7626  11.7766  11.7983  11.9200  11.9255  11.9431
    12.2055  12.2057  12.4187  12.4325  12.4384  12.6166  12.6448  12.6872
    13.2703  13.4213  13.4226  13.5029  13.5041  13.6873  13.7126  13.9326
    13.9406  14.0199  14.1288  14.2348  14.6606  14.6786  14.8944  14.9765
    14.9905  15.0316  15.0593  15.0871  15.3699  15.4147  15.5032  15.5466
    15.5492  15.5592  15.8274  15.8551  15.9022  16.1444  16.1626  16.3758
    16.3895  16.4839  16.6935  16.7296  16.8376  17.2951  17.3928  17.4361
    17.4370  17.5239  17.5253  17.5988  17.6603  17.7951  17.9253  18.0694
    18.2799  18.3496  18.3543  18.3844  18.4245  18.5317  18.5750  18.6257
    18.7359  19.1046  19.2720

     occupation numbers 
     1.0000   1.0000   1.0000   1.0000   1.0000   1.0000   1.0000   1.0000
     1.0000   1.0000   1.0000   1.0000   1.0000   1.0000   1.0000   1.0000
     1.0000   1.0000   1.0000   1.0000   1.0000   1.0000   1.0000   1.0000
     1.0000   1.0000   1.0000   1.0000   1.0000   1.0000   1.0000   1.0000
     1.0000   1.0000   1.0000   1.0000   1.0000   1.0000   1.0000   1.0000
     1.0000   1.0000   1.0000   1.0000   1.0000   1.0000   1.0000   1.0000
     1.0000   1.0000   1.0000   1.0000   1.0000   1.0000   1.0000   1.0000
     1.0000   1.0000   1.0000   1.0000   1.0000   1.0000   1.0000   1.0000
     1.0000   1.0000   1.0000   1.0000   1.0000   1.0000   1.0000   1.0000
     1.0000   1.0000   1.0000   1.0000   1.0000   1.0000   1.0000   1.0000
     1.0000   1.0000   1.0000   1.0000   1.0000   1.0000   1.0000   1.0000
     1.0000   1.0000   1.0000   1.0000   1.0000   1.0000   1.0000   1.0000
     1.0000   1.0000   1.0000   1.0000   1.0000   1.0000   1.0000   1.0000
     1.0000   1.0000   1.0000   1.0000   1.0000   1.0000   1.0000   1.0000
     1.0000   1.0000   1.0000   1.0000   1.0000   1.0000   1.0000   1.0000
     1.0000   1.0000   1.0000   1.0000   1.0000   1.0000   1.0000   1.0000
     1.0000   1.0000   1.0000   1.0000   1.0000   1.0000   1.0000   1.0000
     1.0000   1.0000   1.0000   1.0000   1.0000   1.0000   1.0000   1.0000
     1.0000   1.0000   1.0000   1.0000   1.0000   1.0000   1.0000   1.0000
     1.0000   1.0000   1.0000   1.0000   1.0000   1.0000   1.0000   1.0000
     1.0000   1.0000   1.0000   1.0000   1.0000   1.0000   1.0000   1.0000
     1.0000   1.0000   1.0000   1.0000   1.0000   1.0000   1.0000   1.0000
     1.0000   1.0000   1.0000   1.0000   1.0000   1.0000   1.0000   1.0000
     1.0000   1.0000   1.0000   1.0000   1.0000   1.0000   1.0007   1.0078
     1.0108   1.0230   1.0318   1.0353  -0.0086  -0.0354  -0.0121  -0.0042
    -0.0039  -0.0030  -0.0000  -0.0000  -0.0000  -0.0000  -0.0000  -0.0000
    -0.0000  -0.0000  -0.0000  -0.0000  -0.0000  -0.0000  -0.0000  -0.0000
    -0.0000  -0.0000  -0.0000  -0.0000  -0.0000  -0.0000  -0.0000  -0.0000
    -0.0000  -0.0000  -0.0000  -0.0000  -0.0000  -0.0000  -0.0000  -0.0000
    -0.0000  -0.0000  -0.0000

          k =-0.3333-0.3333 0.0000 (  8042 PWs)   bands (ev):

   -73.6822 -73.6821 -73.6821 -73.6819 -71.7665 -71.7664 -71.7664 -71.7662
   -39.7449 -39.7443 -39.7407 -39.7403 -39.7297 -39.7283 -39.7282 -39.7281
   -39.7274 -39.7272 -39.7269 -39.7265 -37.9185 -37.9171 -37.9171 -37.9170
   -37.9162 -37.9160 -37.9158 -37.9154 -37.7930 -37.7924 -37.7881 -37.7877
    -9.1601  -9.1585  -9.1582  -9.1567  -9.1563  -9.1540  -9.1519  -9.1483
    -9.1441  -9.1429  -9.1347  -9.1228  -9.1221  -9.1211  -9.1188  -9.1174
    -9.1170  -9.1158  -9.1154  -9.1147  -9.1141  -9.1131  -9.1127  -9.1121
    -9.0970  -9.0968  -9.0917  -9.0883  -9.0867  -9.0866  -9.0866  -9.0818
    -9.0791  -9.0736  -9.0735  -9.0734  -9.0718  -9.0587  -9.0582  -9.0504
    -5.5286  -5.1251  -5.0827  -4.7053  -4.5982  -4.2398  -4.2336  -4.0123
    -3.9421  -3.9296  -3.8327  -3.7858  -3.7763  -3.7597  -3.7362  -3.6340
    -3.5876  -3.5833  -3.5607  -3.5536  -3.5526  -3.5127  -3.5094  -3.4963
     3.2102   3.2124   3.2215   3.3512   3.5780   3.5814   3.6188   4.0556
     7.1945   7.2477   7.5579   7.5853   7.6780   7.9061   7.9667   8.0598
     8.1579   8.1768   8.2446   8.2472   8.3158   8.3986   8.3990   8.4337
     8.4379   8.6091   8.6249   8.6886   8.7256   8.7714   8.7855   8.8018
     8.8572   8.8610   8.9012   8.9103   9.2613   9.3620   9.4687   9.6181
     9.6437   9.6478   9.8030   9.9174  10.0777  10.2164  10.2821  10.2920
    10.3631  10.3757  10.3973  10.4241  10.8296  10.8955  10.9231  11.0415
    11.1117  11.3209  11.3318  11.4758  11.5493  11.5513  11.5553  11.6123
    11.6608  11.7379  11.7626  11.7766  11.7983  11.9200  11.9255  11.9431
    12.2055  12.2057  12.4187  12.4325  12.4384  12.6166  12.6448  12.6872
    13.2703  13.4213  13.4226  13.5029  13.5041  13.6873  13.7126  13.9326
    13.9406  14.0199  14.1288  14.2348  14.6606  14.6786  14.8944  14.9765
    14.9905  15.0316  15.0593  15.0871  15.3699  15.4147  15.5032  15.5466
    15.5492  15.5592  15.8274  15.8551  15.9022  16.1444  16.1626  16.3758
    16.3895  16.4839  16.6935  16.7296  16.8376  17.2951  17.3929  17.4361
    17.4370  17.5239  17.5253  17.5978  17.6603  17.7951  17.9254  18.0694
    18.2785  18.3493  18.3526  18.3842  18.4234  18.5316  18.5750  18.6257
    18.7359  19.1046  19.2720

     occupation numbers 
     1.0000   1.0000   1.0000   1.0000   1.0000   1.0000   1.0000   1.0000
     1.0000   1.0000   1.0000   1.0000   1.0000   1.0000   1.0000   1.0000
     1.0000   1.0000   1.0000   1.0000   1.0000   1.0000   1.0000   1.0000
     1.0000   1.0000   1.0000   1.0000   1.0000   1.0000   1.0000   1.0000
     1.0000   1.0000   1.0000   1.0000   1.0000   1.0000   1.0000   1.0000
     1.0000   1.0000   1.0000   1.0000   1.0000   1.0000   1.0000   1.0000
     1.0000   1.0000   1.0000   1.0000   1.0000   1.0000   1.0000   1.0000
     1.0000   1.0000   1.0000   1.0000   1.0000   1.0000   1.0000   1.0000
     1.0000   1.0000   1.0000   1.0000   1.0000   1.0000   1.0000   1.0000
     1.0000   1.0000   1.0000   1.0000   1.0000   1.0000   1.0000   1.0000
     1.0000   1.0000   1.0000   1.0000   1.0000   1.0000   1.0000   1.0000
     1.0000   1.0000   1.0000   1.0000   1.0000   1.0000   1.0000   1.0000
     1.0000   1.0000   1.0000   1.0000   1.0000   1.0000   1.0000   1.0000
     1.0000   1.0000   1.0000   1.0000   1.0000   1.0000   1.0000   1.0000
     1.0000   1.0000   1.0000   1.0000   1.0000   1.0000   1.0000   1.0000
     1.0000   1.0000   1.0000   1.0000   1.0000   1.0000   1.0000   1.0000
     1.0000   1.0000   1.0000   1.0000   1.0000   1.0000   1.0000   1.0000
     1.0000   1.0000   1.0000   1.0000   1.0000   1.0000   1.0000   1.0000
     1.0000   1.0000   1.0000   1.0000   1.0000   1.0000   1.0000   1.0000
     1.0000   1.0000   1.0000   1.0000   1.0000   1.0000   1.0000   1.0000
     1.0000   1.0000   1.0000   1.0000   1.0000   1.0000   1.0000   1.0000
     1.0000   1.0000   1.0000   1.0000   1.0000   1.0000   1.0000   1.0000
     1.0000   1.0000   1.0000   1.0000   1.0000   1.0000   1.0000   1.0000
     1.0000   1.0000   1.0000   1.0000   1.0000   1.0000   1.0007   1.0078
     1.0108   1.0230   1.0318   1.0353  -0.0086  -0.0354  -0.0121  -0.0042
    -0.0039  -0.0030  -0.0000  -0.0000  -0.0000  -0.0000  -0.0000  -0.0000
    -0.0000  -0.0000  -0.0000  -0.0000  -0.0000  -0.0000  -0.0000  -0.0000
    -0.0000  -0.0000  -0.0000  -0.0000  -0.0000  -0.0000  -0.0000  -0.0000
    -0.0000  -0.0000  -0.0000  -0.0000  -0.0000  -0.0000  -0.0000  -0.0000
    -0.0000  -0.0000  -0.0000

          k = 0.3333-0.3333 0.3333 (  8018 PWs)   bands (ev):

   -73.6822 -73.6821 -73.6818 -73.6818 -71.7665 -71.7664 -71.7662 -71.7662
   -39.7443 -39.7420 -39.7418 -39.7399 -39.7290 -39.7289 -39.7285 -39.7283
   -39.7272 -39.7263 -39.7261 -39.7259 -37.9178 -37.9177 -37.9174 -37.9171
   -37.9161 -37.9153 -37.9151 -37.9148 -37.7922 -37.7898 -37.7895 -37.7875
    -9.1551  -9.1519  -9.1509  -9.1438  -9.1423  -9.1415  -9.1392  -9.1370
    -9.1368  -9.1336  -9.1325  -9.1206  -9.1202  -9.1191  -9.1191  -9.1151
    -9.1150  -9.1095  -9.1091  -9.1088  -9.1075  -9.1062  -9.1049  -9.1039
    -9.1036  -9.1027  -9.1027  -9.1025  -9.1004  -9.0958  -9.0906  -9.0862
    -9.0846  -9.0833  -9.0830  -9.0825  -9.0810  -9.0754  -9.0748  -9.0683
    -5.3662  -4.9712  -4.9470  -4.9306  -4.5805  -4.5674  -4.5475  -4.2280
    -3.7714  -3.7534  -3.7530  -3.7399  -3.7086  -3.6987  -3.6263  -3.6161
    -3.6051  -3.5989  -3.5847  -3.5647  -3.5487  -3.5473  -3.5248  -3.5116
     3.3101   3.3151   3.3181   3.4973   3.4985   3.4992   3.5206   3.8528
     7.5000   7.5109   7.6423   7.9284   7.9648   7.9778   8.1199   8.1666
     8.1796   8.2038   8.2389   8.2414   8.2456   8.2804   8.2846   8.2928
     8.3158   8.3289   8.3558   8.4110   8.5467   8.5692   8.5846   8.8317
     8.8735   8.8737   8.9723   9.0804   9.1622   9.5087   9.5215   9.5286
     9.5320   9.5788   9.5800   9.6151   9.9307  10.0352  10.0707  10.1928
    10.2151  10.6083  10.7208  10.7918  10.8195  10.8204  10.8286  11.3410
    11.4607  11.4716  11.5206  11.6448  11.6560  11.6566  11.6639  11.6758
    11.7393  11.8077  11.8085  11.8513  11.8610  11.8650  11.8881  11.9596
    11.9698  11.9856  12.3241  12.3290  12.4385  12.4567  12.4651  12.5427
    13.4271  13.4855  13.5645  13.6198  13.6207  13.6486  13.6744  13.7638
    13.8968  13.9046  13.9112  13.9999  14.9413  14.9526  15.0505  15.0601
    15.0607  15.1241  15.2159  15.2787  15.2795  15.2844  15.3574  15.3641
    15.5617  15.6296  15.8801  15.8999  16.0753  16.1505  16.2204  16.2395
    16.2548  16.5028  16.6569  16.6572  16.7452  16.8370  16.9456  16.9827
    17.2160  17.4382  17.4598  17.7781  17.9744  17.9905  18.0846  18.1096
    18.2898  18.3200  18.4828  18.5100  18.5216  18.7990  18.8065  18.8196
    18.8574  18.8722  18.9522

     occupation numbers 
     1.0000   1.0000   1.0000   1.0000   1.0000   1.0000   1.0000   1.0000
     1.0000   1.0000   1.0000   1.0000   1.0000   1.0000   1.0000   1.0000
     1.0000   1.0000   1.0000   1.0000   1.0000   1.0000   1.0000   1.0000
     1.0000   1.0000   1.0000   1.0000   1.0000   1.0000   1.0000   1.0000
     1.0000   1.0000   1.0000   1.0000   1.0000   1.0000   1.0000   1.0000
     1.0000   1.0000   1.0000   1.0000   1.0000   1.0000   1.0000   1.0000
     1.0000   1.0000   1.0000   1.0000   1.0000   1.0000   1.0000   1.0000
     1.0000   1.0000   1.0000   1.0000   1.0000   1.0000   1.0000   1.0000
     1.0000   1.0000   1.0000   1.0000   1.0000   1.0000   1.0000   1.0000
     1.0000   1.0000   1.0000   1.0000   1.0000   1.0000   1.0000   1.0000
     1.0000   1.0000   1.0000   1.0000   1.0000   1.0000   1.0000   1.0000
     1.0000   1.0000   1.0000   1.0000   1.0000   1.0000   1.0000   1.0000
     1.0000   1.0000   1.0000   1.0000   1.0000   1.0000   1.0000   1.0000
     1.0000   1.0000   1.0000   1.0000   1.0000   1.0000   1.0000   1.0000
     1.0000   1.0000   1.0000   1.0000   1.0000   1.0000   1.0000   1.0000
     1.0000   1.0000   1.0000   1.0000   1.0000   1.0000   1.0000   1.0000
     1.0000   1.0000   1.0000   1.0000   1.0000   1.0000   1.0000   1.0000
     1.0000   1.0000   1.0000   1.0000   1.0000   1.0000   1.0000   1.0000
     1.0000   1.0000   1.0000   1.0000   1.0000   1.0000   1.0000   1.0000
     1.0000   1.0000   1.0000   1.0000   1.0000   1.0000   1.0000   1.0000
     1.0000   1.0000   1.0000   1.0000   1.0000   1.0000   1.0000   1.0000
     1.0000   1.0000   1.0000   1.0000   1.0000   1.0000   1.0000   1.0000
     1.0000   1.0000   1.0000   1.0000   1.0000   1.0000   1.0000   1.0000
     1.0000   1.0000   1.0000   1.0000   1.0031   1.0042   1.0293   1.0321
     1.0322   1.0151   0.7027   0.3232   0.3185   0.2908   0.0119   0.0000
    -0.0028  -0.0003  -0.0000  -0.0000  -0.0000  -0.0000  -0.0000  -0.0000
    -0.0000  -0.0000  -0.0000  -0.0000  -0.0000  -0.0000  -0.0000  -0.0000
    -0.0000  -0.0000  -0.0000  -0.0000  -0.0000  -0.0000  -0.0000  -0.0000
    -0.0000  -0.0000  -0.0000  -0.0000  -0.0000  -0.0000  -0.0000  -0.0000
    -0.0000  -0.0000  -0.0000

 ------ SPIN DOWN ----------


          k = 0.0000 0.0000 0.0000 (  8121 PWs)   bands (ev):

   -73.6825 -73.6824 -73.6822 -73.6817 -71.7667 -71.7666 -71.7664 -71.7660
   -39.7460 -39.7438 -39.7421 -39.7412 -39.7310 -39.7310 -39.7307 -39.7307
   -39.7299 -39.7299 -39.7254 -39.7254 -37.9196 -37.9196 -37.9192 -37.9192
   -37.9185 -37.9185 -37.9141 -37.9141 -37.7943 -37.7912 -37.7897 -37.7896
    -9.1960  -9.1880  -9.1841  -9.1830  -9.1825  -9.1728  -9.1704  -9.1704
    -9.1603  -9.1500  -9.1500  -9.1238  -9.1238  -9.1115  -9.1106  -9.1106
    -9.1070  -9.1070  -9.1053  -9.1053  -9.1008  -9.0958  -9.0950  -9.0950
    -9.0942  -9.0939  -9.0931  -9.0931  -9.0923  -9.0793  -9.0774  -9.0671
    -9.0671  -9.0659  -9.0644  -9.0578  -9.0544  -9.0457  -9.0457  -9.0390
    -5.8582  -4.9380  -4.8960  -4.8844  -4.1202  -4.0879  -4.0879  -4.0204
    -3.9895  -3.9861  -3.9353  -3.8553  -3.8553  -3.8551  -3.8551  -3.8368
    -3.5972  -3.5703  -3.5703  -3.5348  -3.4913  -3.4769  -3.4732  -3.4571
     2.8641   2.8641   2.8659   3.5717   3.5723   3.5723   4.5107   4.8023
     6.7422   6.7422   6.7507   6.8233   7.5013   7.5063   7.5196   7.9333
     7.9465   8.0420   8.0957   8.0957   8.1073   8.3840   8.4947   8.5251
     8.6091   8.6545   9.2347   9.3667   9.3667   9.3787   9.3787   9.3812
     9.3812   9.4040   9.4040   9.4051   9.4113   9.4317   9.4317   9.4326
     9.4424   9.4424   9.4488   9.5178   9.8563   9.9620   9.9620  10.0389
    10.0389  10.2279  10.2581  10.2694  10.2694  10.5562  10.6684  10.6684
    11.1662  11.1662  11.1961  11.5635  11.5635  11.5942  12.0433  12.0433
    12.0451  12.1587  12.1587  12.1760  12.1802  12.1802  12.1936  12.7424
    12.7424  12.7674  12.8755  12.9176  12.9176  12.9264  12.9487  12.9487
    12.9574  12.9842  12.9842  13.0251  13.0251  13.0493  13.9837  13.9837
    14.0378  14.2084  14.3067  14.4079  14.4079  14.4189  14.7442  14.7489
    14.8520  14.8829  14.8927  15.0578  15.1083  15.1196  15.1196  15.1989
    15.1989  15.3765  15.5252  15.5252  15.5391  15.5784  15.6119  15.8643
    15.8815  15.8815  16.1455  16.6451  16.6583  16.6649  16.7834  16.8935
    17.2120  17.7312  17.7312  17.7417  17.7529  17.7529  17.7565  18.4162
[...]
    17.1387  17.5014  17.8057  17.8612  17.8748  17.9783  17.9976  18.1746
    18.1780  18.1994  18.2028  18.3801  18.7663  18.7844  19.0154  19.0222
    19.0740  19.4884  19.5092

     occupation numbers 
     1.0000   1.0000   1.0000   1.0000   1.0000   1.0000   1.0000   1.0000
     1.0000   1.0000   1.0000   1.0000   1.0000   1.0000   1.0000   1.0000
     1.0000   1.0000   1.0000   1.0000   1.0000   1.0000   1.0000   1.0000
     1.0000   1.0000   1.0000   1.0000   1.0000   1.0000   1.0000   1.0000
     1.0000   1.0000   1.0000   1.0000   1.0000   1.0000   1.0000   1.0000
     1.0000   1.0000   1.0000   1.0000   1.0000   1.0000   1.0000   1.0000
     1.0000   1.0000   1.0000   1.0000   1.0000   1.0000   1.0000   1.0000
     1.0000   1.0000   1.0000   1.0000   1.0000   1.0000   1.0000   1.0000
     1.0000   1.0000   1.0000   1.0000   1.0000   1.0000   1.0000   1.0000
     1.0000   1.0000   1.0000   1.0000   1.0000   1.0000   1.0000   1.0000
     1.0000   1.0000   1.0000   1.0000   1.0000   1.0000   1.0000   1.0000
     1.0000   1.0000   1.0000   1.0000   1.0000   1.0000   1.0000   1.0000
     1.0000   1.0000   1.0000   1.0000   1.0000   1.0000   1.0000   1.0000
     1.0000   1.0000   1.0000   1.0000   1.0000   1.0000   1.0000   1.0000
     1.0000   1.0000   1.0000   1.0000   1.0000   1.0000   1.0000   1.0000
     1.0000   1.0000   1.0000   1.0000   1.0000   1.0000   1.0000   1.0000
     1.0000   1.0000   1.0000   1.0000   1.0000   1.0000   1.0000   1.0000
     1.0000   1.0000   1.0000   1.0000   1.0000   1.0000   1.0000   1.0000
     1.0000   1.0000   1.0000   1.0000   1.0000   1.0000   1.0000   1.0000
     1.0000   1.0000   1.0000   1.0000   1.0000   1.0000   1.0000   1.0000
     1.0000   1.0000   1.0000   1.0000   1.0000   1.0000   1.0000   1.0000
     1.0000   1.0000   1.0000   1.0000   1.0000   1.0000   1.0000   1.0000
     1.0000   1.0000   1.0000   1.0000   1.0000   1.0000   1.0000   1.0000
     1.0000   1.0000   1.0000   1.0000   1.0000   1.0000   1.0127   1.0263
     1.0336   0.9926   0.9098   0.9037   0.0086  -0.0147  -0.0340  -0.0162
    -0.0120  -0.0087  -0.0047  -0.0034  -0.0002  -0.0000  -0.0000  -0.0000
    -0.0000  -0.0000  -0.0000  -0.0000  -0.0000  -0.0000  -0.0000  -0.0000
    -0.0000  -0.0000  -0.0000  -0.0000  -0.0000  -0.0000  -0.0000  -0.0000
    -0.0000  -0.0000  -0.0000  -0.0000  -0.0000  -0.0000  -0.0000  -0.0000
    -0.0000  -0.0000  -0.0000

          k = 0.3333-0.3333 0.0000 (  8042 PWs)   bands (ev):

   -73.6821 -73.6820 -73.6820 -73.6819 -71.7664 -71.7663 -71.7663 -71.7661
   -39.7446 -39.7440 -39.7403 -39.7400 -39.7297 -39.7284 -39.7283 -39.7282
   -39.7274 -39.7272 -39.7269 -39.7265 -37.9184 -37.9170 -37.9170 -37.9169
   -37.9161 -37.9159 -37.9157 -37.9153 -37.7929 -37.7923 -37.7880 -37.7877
    -9.1601  -9.1585  -9.1582  -9.1567  -9.1563  -9.1540  -9.1519  -9.1483
    -9.1441  -9.1429  -9.1347  -9.1228  -9.1221  -9.1211  -9.1188  -9.1174
    -9.1170  -9.1158  -9.1154  -9.1147  -9.1141  -9.1131  -9.1127  -9.1121
    -9.0970  -9.0968  -9.0917  -9.0883  -9.0867  -9.0866  -9.0866  -9.0818
    -9.0791  -9.0736  -9.0735  -9.0734  -9.0718  -9.0587  -9.0582  -9.0504
    -5.5286  -5.1251  -5.0827  -4.7053  -4.5982  -4.2398  -4.2336  -4.0123
    -3.9421  -3.9296  -3.8327  -3.7858  -3.7763  -3.7597  -3.7362  -3.6340
    -3.5876  -3.5833  -3.5607  -3.5535  -3.5526  -3.5127  -3.5094  -3.4963
     3.2102   3.2124   3.2215   3.3512   3.5780   3.5814   3.6188   4.0556
     7.1945   7.2477   7.5579   7.5853   7.6780   7.9061   7.9668   8.0599
     8.1579   8.1768   8.2446   8.2472   8.3158   8.3987   8.3990   8.4337
     8.4379   8.6091   8.6249   8.6886   8.7256   8.7715   8.7855   8.8017
     8.8572   8.8610   8.9013   8.9103   9.2613   9.3620   9.4687   9.6181
     9.6437   9.6477   9.8030   9.9174  10.0778  10.2165  10.2822  10.2919
    10.3632  10.3757  10.3973  10.4241  10.8296  10.8955  10.9232  11.0416
    11.1118  11.3209  11.3318  11.4758  11.5493  11.5514  11.5554  11.6122
    11.6608  11.7379  11.7626  11.7766  11.7983  11.9200  11.9255  11.9431
    12.2055  12.2057  12.4187  12.4325  12.4384  12.6166  12.6448  12.6872
    13.2701  13.4215  13.4227  13.5031  13.5042  13.6871  13.7124  13.9324
    13.9408  14.0200  14.1289  14.2349  14.6607  14.6787  14.8943  14.9766
    14.9906  15.0317  15.0594  15.0870  15.3698  15.4147  15.5033  15.5467
    15.5493  15.5593  15.8274  15.8552  15.9023  16.1444  16.1627  16.3758
    16.3895  16.4839  16.6935  16.7297  16.8376  17.2952  17.3931  17.4361
    17.4370  17.5239  17.5253  17.5978  17.6603  17.7951  17.9254  18.0695
    18.2799  18.3496  18.3543  18.3844  18.4245  18.5316  18.5751  18.6257
    18.7359  19.1046  19.2720

     occupation numbers 
     1.0000   1.0000   1.0000   1.0000   1.0000   1.0000   1.0000   1.0000
     1.0000   1.0000   1.0000   1.0000   1.0000   1.0000   1.0000   1.0000
     1.0000   1.0000   1.0000   1.0000   1.0000   1.0000   1.0000   1.0000
     1.0000   1.0000   1.0000   1.0000   1.0000   1.0000   1.0000   1.0000
     1.0000   1.0000   1.0000   1.0000   1.0000   1.0000   1.0000   1.0000
     1.0000   1.0000   1.0000   1.0000   1.0000   1.0000   1.0000   1.0000
     1.0000   1.0000   1.0000   1.0000   1.0000   1.0000   1.0000   1.0000
     1.0000   1.0000   1.0000   1.0000   1.0000   1.0000   1.0000   1.0000
     1.0000   1.0000   1.0000   1.0000   1.0000   1.0000   1.0000   1.0000
     1.0000   1.0000   1.0000   1.0000   1.0000   1.0000   1.0000   1.0000
     1.0000   1.0000   1.0000   1.0000   1.0000   1.0000   1.0000   1.0000
     1.0000   1.0000   1.0000   1.0000   1.0000   1.0000   1.0000   1.0000
     1.0000   1.0000   1.0000   1.0000   1.0000   1.0000   1.0000   1.0000
     1.0000   1.0000   1.0000   1.0000   1.0000   1.0000   1.0000   1.0000
     1.0000   1.0000   1.0000   1.0000   1.0000   1.0000   1.0000   1.0000
     1.0000   1.0000   1.0000   1.0000   1.0000   1.0000   1.0000   1.0000
     1.0000   1.0000   1.0000   1.0000   1.0000   1.0000   1.0000   1.0000
     1.0000   1.0000   1.0000   1.0000   1.0000   1.0000   1.0000   1.0000
     1.0000   1.0000   1.0000   1.0000   1.0000   1.0000   1.0000   1.0000
     1.0000   1.0000   1.0000   1.0000   1.0000   1.0000   1.0000   1.0000
     1.0000   1.0000   1.0000   1.0000   1.0000   1.0000   1.0000   1.0000
     1.0000   1.0000   1.0000   1.0000   1.0000   1.0000   1.0000   1.0000
     1.0000   1.0000   1.0000   1.0000   1.0000   1.0000   1.0000   1.0000
     1.0000   1.0000   1.0000   1.0000   1.0000   1.0000   1.0007   1.0078
     1.0108   1.0230   1.0318   1.0353  -0.0085  -0.0354  -0.0121  -0.0042
    -0.0039  -0.0030  -0.0000  -0.0000  -0.0000  -0.0000  -0.0000  -0.0000
    -0.0000  -0.0000  -0.0000  -0.0000  -0.0000  -0.0000  -0.0000  -0.0000
    -0.0000  -0.0000  -0.0000  -0.0000  -0.0000  -0.0000  -0.0000  -0.0000
    -0.0000  -0.0000  -0.0000  -0.0000  -0.0000  -0.0000  -0.0000  -0.0000
    -0.0000  -0.0000  -0.0000

          k =-0.3333-0.3333 0.0000 (  8042 PWs)   bands (ev):

   -73.6821 -73.6820 -73.6820 -73.6819 -71.7664 -71.7663 -71.7663 -71.7661
   -39.7446 -39.7440 -39.7403 -39.7400 -39.7297 -39.7284 -39.7283 -39.7282
   -39.7274 -39.7272 -39.7269 -39.7265 -37.9184 -37.9170 -37.9170 -37.9169
   -37.9161 -37.9159 -37.9157 -37.9153 -37.7929 -37.7923 -37.7880 -37.7877
    -9.1601  -9.1585  -9.1582  -9.1567  -9.1563  -9.1540  -9.1519  -9.1483
    -9.1441  -9.1429  -9.1347  -9.1228  -9.1221  -9.1211  -9.1188  -9.1174
    -9.1170  -9.1158  -9.1154  -9.1147  -9.1141  -9.1131  -9.1127  -9.1121
    -9.0970  -9.0968  -9.0917  -9.0883  -9.0867  -9.0866  -9.0866  -9.0818
    -9.0791  -9.0736  -9.0735  -9.0734  -9.0718  -9.0587  -9.0582  -9.0504
    -5.5286  -5.1251  -5.0827  -4.7053  -4.5982  -4.2398  -4.2336  -4.0123
    -3.9421  -3.9296  -3.8327  -3.7858  -3.7763  -3.7597  -3.7362  -3.6340
    -3.5876  -3.5833  -3.5607  -3.5535  -3.5526  -3.5127  -3.5094  -3.4963
     3.2102   3.2124   3.2215   3.3512   3.5780   3.5814   3.6188   4.0556
     7.1945   7.2477   7.5579   7.5853   7.6780   7.9061   7.9668   8.0599
     8.1579   8.1768   8.2446   8.2472   8.3158   8.3987   8.3990   8.4337
     8.4379   8.6091   8.6249   8.6886   8.7256   8.7715   8.7855   8.8017
     8.8572   8.8610   8.9013   8.9103   9.2613   9.3620   9.4687   9.6181
     9.6437   9.6477   9.8030   9.9174  10.0778  10.2165  10.2822  10.2919
    10.3632  10.3757  10.3973  10.4241  10.8296  10.8955  10.9232  11.0416
    11.1118  11.3209  11.3318  11.4758  11.5493  11.5514  11.5554  11.6122
    11.6608  11.7379  11.7626  11.7766  11.7983  11.9200  11.9255  11.9431
    12.2055  12.2057  12.4187  12.4325  12.4384  12.6166  12.6448  12.6872
    13.2701  13.4215  13.4227  13.5031  13.5042  13.6871  13.7124  13.9324
    13.9408  14.0200  14.1289  14.2349  14.6607  14.6787  14.8943  14.9766
    14.9906  15.0317  15.0594  15.0870  15.3698  15.4147  15.5033  15.5467
    15.5493  15.5593  15.8274  15.8552  15.9023  16.1444  16.1627  16.3758
    16.3895  16.4839  16.6935  16.7297  16.8376  17.2952  17.3930  17.4361
    17.4370  17.5239  17.5253  17.5978  17.6603  17.7951  17.9254  18.0695
    18.2798  18.3495  18.3543  18.3844  18.4240  18.5317  18.5751  18.6257
    18.7359  19.1046  19.2720

     occupation numbers 
     1.0000   1.0000   1.0000   1.0000   1.0000   1.0000   1.0000   1.0000
     1.0000   1.0000   1.0000   1.0000   1.0000   1.0000   1.0000   1.0000
     1.0000   1.0000   1.0000   1.0000   1.0000   1.0000   1.0000   1.0000
     1.0000   1.0000   1.0000   1.0000   1.0000   1.0000   1.0000   1.0000
     1.0000   1.0000   1.0000   1.0000   1.0000   1.0000   1.0000   1.0000
     1.0000   1.0000   1.0000   1.0000   1.0000   1.0000   1.0000   1.0000
     1.0000   1.0000   1.0000   1.0000   1.0000   1.0000   1.0000   1.0000
     1.0000   1.0000   1.0000   1.0000   1.0000   1.0000   1.0000   1.0000
     1.0000   1.0000   1.0000   1.0000   1.0000   1.0000   1.0000   1.0000
     1.0000   1.0000   1.0000   1.0000   1.0000   1.0000   1.0000   1.0000
     1.0000   1.0000   1.0000   1.0000   1.0000   1.0000   1.0000   1.0000
     1.0000   1.0000   1.0000   1.0000   1.0000   1.0000   1.0000   1.0000
     1.0000   1.0000   1.0000   1.0000   1.0000   1.0000   1.0000   1.0000
     1.0000   1.0000   1.0000   1.0000   1.0000   1.0000   1.0000   1.0000
     1.0000   1.0000   1.0000   1.0000   1.0000   1.0000   1.0000   1.0000
     1.0000   1.0000   1.0000   1.0000   1.0000   1.0000   1.0000   1.0000
     1.0000   1.0000   1.0000   1.0000   1.0000   1.0000   1.0000   1.0000
     1.0000   1.0000   1.0000   1.0000   1.0000   1.0000   1.0000   1.0000
     1.0000   1.0000   1.0000   1.0000   1.0000   1.0000   1.0000   1.0000
     1.0000   1.0000   1.0000   1.0000   1.0000   1.0000   1.0000   1.0000
     1.0000   1.0000   1.0000   1.0000   1.0000   1.0000   1.0000   1.0000
     1.0000   1.0000   1.0000   1.0000   1.0000   1.0000   1.0000   1.0000
     1.0000   1.0000   1.0000   1.0000   1.0000   1.0000   1.0000   1.0000
     1.0000   1.0000   1.0000   1.0000   1.0000   1.0000   1.0007   1.0078
     1.0108   1.0230   1.0318   1.0353  -0.0085  -0.0354  -0.0121  -0.0042
    -0.0039  -0.0030  -0.0000  -0.0000  -0.0000  -0.0000  -0.0000  -0.0000
    -0.0000  -0.0000  -0.0000  -0.0000  -0.0000  -0.0000  -0.0000  -0.0000
    -0.0000  -0.0000  -0.0000  -0.0000  -0.0000  -0.0000  -0.0000  -0.0000
    -0.0000  -0.0000  -0.0000  -0.0000  -0.0000  -0.0000  -0.0000  -0.0000
    -0.0000  -0.0000  -0.0000

          k = 0.3333-0.3333 0.3333 (  8018 PWs)   bands (ev):

   -73.6822 -73.6821 -73.6818 -73.6818 -71.7664 -71.7663 -71.7661 -71.7661
   -39.7440 -39.7417 -39.7414 -39.7395 -39.7291 -39.7290 -39.7286 -39.7283
   -39.7273 -39.7264 -39.7262 -39.7259 -37.9177 -37.9176 -37.9173 -37.9170
   -37.9160 -37.9152 -37.9150 -37.9147 -37.7921 -37.7897 -37.7895 -37.7875
    -9.1551  -9.1519  -9.1509  -9.1438  -9.1423  -9.1415  -9.1392  -9.1370
    -9.1368  -9.1336  -9.1325  -9.1206  -9.1203  -9.1191  -9.1191  -9.1151
    -9.1150  -9.1095  -9.1091  -9.1088  -9.1075  -9.1062  -9.1049  -9.1039
    -9.1036  -9.1028  -9.1027  -9.1025  -9.1004  -9.0958  -9.0907  -9.0862
    -9.0846  -9.0833  -9.0830  -9.0825  -9.0810  -9.0754  -9.0748  -9.0683
    -5.3662  -4.9712  -4.9469  -4.9306  -4.5805  -4.5674  -4.5475  -4.2279
    -3.7714  -3.7533  -3.7530  -3.7399  -3.7086  -3.6987  -3.6263  -3.6161
    -3.6051  -3.5989  -3.5847  -3.5647  -3.5487  -3.5473  -3.5248  -3.5116
     3.3101   3.3151   3.3181   3.4973   3.4985   3.4992   3.5206   3.8528
     7.5000   7.5109   7.6423   7.9284   7.9648   7.9778   8.1199   8.1667
     8.1796   8.2039   8.2389   8.2415   8.2456   8.2804   8.2847   8.2928
     8.3158   8.3289   8.3558   8.4110   8.5467   8.5691   8.5846   8.8317
     8.8735   8.8737   8.9724   9.0804   9.1622   9.5087   9.5215   9.5286
     9.5320   9.5788   9.5800   9.6151   9.9307  10.0352  10.0707  10.1928
    10.2151  10.6084  10.7208  10.7918  10.8195  10.8204  10.8286  11.3410
    11.4607  11.4717  11.5206  11.6449  11.6560  11.6566  11.6639  11.6758
    11.7393  11.8078  11.8085  11.8513  11.8610  11.8650  11.8882  11.9596
    11.9698  11.9856  12.3241  12.3290  12.4385  12.4567  12.4651  12.5427
    13.4269  13.4856  13.5647  13.6199  13.6209  13.6485  13.6743  13.7640
    13.8969  13.9047  13.9111  14.0000  14.9414  14.9525  15.0506  15.0602
    15.0608  15.1240  15.2158  15.2788  15.2796  15.2845  15.3573  15.3642
    15.5618  15.6297  15.8801  15.8999  16.0754  16.1505  16.2204  16.2395
    16.2548  16.5029  16.6569  16.6572  16.7452  16.8371  16.9456  16.9827
    17.2160  17.4382  17.4600  17.7783  17.9747  17.9908  18.0846  18.1096
    18.3200  18.3412  18.4828  18.5100  18.5216  18.7991  18.8065  18.8194
    18.8574  18.8722  18.9522

     occupation numbers 
     1.0000   1.0000   1.0000   1.0000   1.0000   1.0000   1.0000   1.0000
     1.0000   1.0000   1.0000   1.0000   1.0000   1.0000   1.0000   1.0000
     1.0000   1.0000   1.0000   1.0000   1.0000   1.0000   1.0000   1.0000
     1.0000   1.0000   1.0000   1.0000   1.0000   1.0000   1.0000   1.0000
     1.0000   1.0000   1.0000   1.0000   1.0000   1.0000   1.0000   1.0000
     1.0000   1.0000   1.0000   1.0000   1.0000   1.0000   1.0000   1.0000
     1.0000   1.0000   1.0000   1.0000   1.0000   1.0000   1.0000   1.0000
     1.0000   1.0000   1.0000   1.0000   1.0000   1.0000   1.0000   1.0000
     1.0000   1.0000   1.0000   1.0000   1.0000   1.0000   1.0000   1.0000
     1.0000   1.0000   1.0000   1.0000   1.0000   1.0000   1.0000   1.0000
     1.0000   1.0000   1.0000   1.0000   1.0000   1.0000   1.0000   1.0000
     1.0000   1.0000   1.0000   1.0000   1.0000   1.0000   1.0000   1.0000
     1.0000   1.0000   1.0000   1.0000   1.0000   1.0000   1.0000   1.0000
     1.0000   1.0000   1.0000   1.0000   1.0000   1.0000   1.0000   1.0000
     1.0000   1.0000   1.0000   1.0000   1.0000   1.0000   1.0000   1.0000
     1.0000   1.0000   1.0000   1.0000   1.0000   1.0000   1.0000   1.0000
     1.0000   1.0000   1.0000   1.0000   1.0000   1.0000   1.0000   1.0000
     1.0000   1.0000   1.0000   1.0000   1.0000   1.0000   1.0000   1.0000
     1.0000   1.0000   1.0000   1.0000   1.0000   1.0000   1.0000   1.0000
     1.0000   1.0000   1.0000   1.0000   1.0000   1.0000   1.0000   1.0000
     1.0000   1.0000   1.0000   1.0000   1.0000   1.0000   1.0000   1.0000
     1.0000   1.0000   1.0000   1.0000   1.0000   1.0000   1.0000   1.0000
     1.0000   1.0000   1.0000   1.0000   1.0000   1.0000   1.0000   1.0000
     1.0000   1.0000   1.0000   1.0000   1.0031   1.0042   1.0293   1.0321
     1.0322   1.0151   0.7030   0.3228   0.3181   0.2903   0.0120  -0.0001
    -0.0028  -0.0003  -0.0000  -0.0000  -0.0000  -0.0000  -0.0000  -0.0000
    -0.0000  -0.0000  -0.0000  -0.0000  -0.0000  -0.0000  -0.0000  -0.0000
    -0.0000  -0.0000  -0.0000  -0.0000  -0.0000  -0.0000  -0.0000  -0.0000
    -0.0000  -0.0000  -0.0000  -0.0000  -0.0000  -0.0000  -0.0000  -0.0000
    -0.0000  -0.0000  -0.0000

     the Fermi energy is    15.2496 ev

!    total energy              =   -4259.06737151 Ry
     estimated scf accuracy    <       0.00000005 Ry
     smearing contrib. (-TS)   =       0.00026154 Ry
     internal energy E=F+TS    =   -4259.06763305 Ry

     The total energy is F=E-TS. E is the sum of the following terms:
     one-electron contribution =   -1508.29233003 Ry
     hartree contribution      =    1041.15530991 Ry
     xc contribution           =    -926.52358529 Ry
     ewald contribution        =   -2865.40702764 Ry

     total magnetization       =     0.00 Bohr mag/cell
     absolute magnetization    =    13.95 Bohr mag/cell

     convergence has been achieved in  39 iterations

     Writing output data file /home/aldair1809/Documentos/QE/4BFO/temp/bifeo3.save/

     init_run     :    108.78s CPU    109.99s WALL (       1 calls)
     electrons    :  23010.74s CPU  23205.66s WALL (       1 calls)

     Called by init_run:
     wfcinit      :    106.25s CPU    107.05s WALL (       1 calls)
     wfcinit:atom :      0.10s CPU      0.10s WALL (      16 calls)
     wfcinit:wfcr :    105.31s CPU    106.08s WALL (      16 calls)
     potinit      :      0.33s CPU      0.37s WALL (       1 calls)
     hinit0       :      0.54s CPU      0.55s WALL (       1 calls)

     Called by electrons:
     c_bands      :  21869.81s CPU  22016.31s WALL (      39 calls)
     sum_band     :   1057.22s CPU   1087.40s WALL (      39 calls)
     v_of_rho     :      9.96s CPU     10.28s WALL (      40 calls)
     v_h          :      0.36s CPU      0.38s WALL (      40 calls)
     v_xc         :      9.60s CPU      9.90s WALL (      40 calls)
     newd         :     72.54s CPU     90.66s WALL (      40 calls)
     mix_rho      :      1.96s CPU      2.02s WALL (      39 calls)

     Called by c_bands:
     init_us_2    :     13.08s CPU     13.15s WALL (    1264 calls)
     ccgdiagg     :  18302.65s CPU  18426.16s WALL (     624 calls)
     wfcrot       :   3659.95s CPU   3683.62s WALL (     624 calls)

     Called by sum_band:
     sum_band:wei :      0.33s CPU      0.33s WALL (      39 calls)
     sum_band:loo :    928.62s CPU    940.17s WALL (      39 calls)
     sum_band:buf :      2.14s CPU      2.17s WALL (     624 calls)
     sum_band:ini :      6.28s CPU      6.31s WALL (     624 calls)
     sum_band:cal :    802.73s CPU    804.28s WALL (     624 calls)
     sum_band:bec :      4.30s CPU      4.32s WALL (     624 calls)
     addusdens    :    103.89s CPU    122.39s WALL (      39 calls)
     addusd:skk   :      0.40s CPU      0.42s WALL (     156 calls)
     addusd:dgemm :     70.14s CPU     85.52s WALL (     312 calls)
     addusd:qvan2 :     32.42s CPU     32.45s WALL (     312 calls)

     Called by *cgdiagg:
     h_psi        :   8981.03s CPU   9082.72s WALL (  334982 calls)
     s_psi        :   3259.85s CPU   3278.65s WALL (  669340 calls)

     Called by h_psi:
     h_psi:calbec :   6214.86s CPU   6243.03s WALL (  334982 calls)
     vloc_psi     :    774.14s CPU    841.34s WALL (  334982 calls)
     add_vuspsi   :   1977.51s CPU   1984.87s WALL (  334982 calls)
     hs_1psi      :   8597.86s CPU   8687.38s WALL (  334358 calls)
     s_1psi       :   6790.77s CPU   6812.17s WALL (  334358 calls)

     General routines
     calbec       :  12483.40s CPU  12530.10s WALL (  669964 calls)
     fft          :      7.39s CPU      7.85s WALL (     994 calls)
     ffts         :      0.23s CPU      0.27s WALL (     158 calls)
     fftw         :    805.98s CPU    876.48s WALL ( 1109820 calls)
     interpolate  :      0.71s CPU      0.76s WALL (      80 calls)

     Parallel routines
     fft_scatt_xy :     73.05s CPU     78.67s WALL ( 1110972 calls)
     fft_scatt_yz :    360.16s CPU    394.81s WALL ( 1110972 calls)

     PWSCF        :      6h25m CPU      6h28m WALL


   This run was terminated on:  22:50: 9  10Nov2024            

=------------------------------------------------------------------------------=
   JOB DONE.
=------------------------------------------------------------------------------=
