
     Program PWSCF v.6.7MaX starts on  6Dec2024 at 16:32:42 

     This program is part of the open-source Quantum ESPRESSO suite
     for quantum simulation of materials; please cite
         "P. Giannozzi et al., J. Phys.:Condens. Matter 21 395502 (2009);
         "P. Giannozzi et al., J. Phys.:Condens. Matter 29 465901 (2017);
          URL http://www.quantum-espresso.org", 
     in publications or presentations arising from this work. More details at
     http://www.quantum-espresso.org/quote

     Parallel version (MPI), running on     4 processors

     MPI processes distributed on     1 nodes
     R & G space division:  proc/nbgrp/npool/nimage =       4
     Waiting for input...
     Reading input from standard input

     Current dimensions of program PWSCF are:
     Max number of different atomic species (ntypx) = 10
     Max number of k-points (npk) =  40000
     Max angular momentum in pseudopotentials (lmaxx) =  3
     Message from routine iosys:
     wrong startingpot: use default (1)

     Atomic positions and unit cell read from directory:
     /home/aldair1809/Documentos/QE/4BFO/temp_cubic/nscf/bifeo3.save/


     Subspace diagonalization in iterative solution of the eigenvalue problem:
     one sub-group per band group will be used
     scalapack distributed-memory algorithm (size of sub-group:  2*  2 procs)

     Found symmetry operation: I + ( -0.5000 -0.5000  0.0000)
     This is a supercell, fractional translations are disabled

     Parallelization info
     --------------------
     sticks:   dense  smooth     PW     G-vecs:    dense   smooth      PW
     Min        1239     619    181                65627    23147    3632
     Max        1240     620    182                65630    23148    3633
     Sum        4957    2477    725               262515    92589   14531



     bravais-lattice index     =            1
     lattice parameter (alat)  =      14.9137  a.u.
     unit-cell volume          =    3317.0944 (a.u.)^3
     number of atoms/cell      =           40
     number of atomic types    =            4
     number of electrons       =       392.00
     number of Kohn-Sham states=          196
     kinetic-energy cutoff     =      35.0000  Ry
     charge density cutoff     =     280.0000  Ry
     Exchange-correlation= SLA  PW   PSX  PSC
                           (   1   4  10   8   0   0   0)

     celldm(1)=  14.913719  celldm(2)=   0.000000  celldm(3)=   0.000000
     celldm(4)=   0.000000  celldm(5)=   0.000000  celldm(6)=   0.000000

     crystal axes: (cart. coord. in units of alat)
               a(1) = (   1.000000   0.000000   0.000000 )  
               a(2) = (   0.000000   1.000000   0.000000 )  
               a(3) = (   0.000000   0.000000   1.000000 )  

     reciprocal axes: (cart. coord. in units 2 pi/alat)
               b(1) = (  1.000000  0.000000  0.000000 )  
               b(2) = (  0.000000  1.000000  0.000000 )  
               b(3) = (  0.000000  0.000000  1.000000 )  


     PseudoPot. # 1 for O  read from file:
     /home/aldair1809/Programas/QE/q-e-qe-7.3/pseudo/o_pbesol_v1.2.uspp.F.UPF
     MD5 check sum: 501638753501ef6325af9037351f7734
     Pseudo is Ultrasoft + core correction, Zval =  6.0
     Generated by new atomic code, or converted to UPF format
     Using radial grid of  737 points,  5 beta functions with: 
                l(1) =   0
                l(2) =   0
                l(3) =   1
                l(4) =   1
                l(5) =   2
     Q(r) pseudized with  8 coefficients,  rinner =    0.900   0.900   0.900
                                                       0.900   0.900

     PseudoPot. # 2 for Bi read from file:
     /home/aldair1809/Programas/QE/q-e-qe-7.3/pseudo/bi_pbesol_v1.uspp.F.UPF
     MD5 check sum: 588b87649a5c12ad5a0392deab1dcc00
     Pseudo is Ultrasoft + core correction, Zval = 15.0
     Generated by new atomic code, or converted to UPF format
     Using radial grid of  899 points,  6 beta functions with: 
                l(1) =   0
                l(2) =   0
                l(3) =   1
                l(4) =   1
                l(5) =   2
                l(6) =   2
     Q(r) pseudized with  6 coefficients,  rinner =    1.000   1.000   1.000
                                                       1.000   1.000

     PseudoPot. # 3 for Fe read from file:
     /home/aldair1809/Programas/QE/q-e-qe-7.3/pseudo/fe_pbesol_v1.5.uspp.F.UPF
     MD5 check sum: a3f38e9a1a818e424be8f97771a26c64
     Pseudo is Ultrasoft + core correction, Zval = 16.0
     Generated by new atomic code, or converted to UPF format
     Using radial grid of  861 points,  6 beta functions with: 
                l(1) =   0
                l(2) =   0
                l(3) =   1
                l(4) =   1
                l(5) =   2
                l(6) =   2
     Q(r) pseudized with  8 coefficients,  rinner =    1.000   1.000   1.000
                                                       1.000   1.000

     PseudoPot. # 4 for Fe read from file:
     /home/aldair1809/Programas/QE/q-e-qe-7.3/pseudo/fe_pbesol_v1.5.uspp.F.UPF
     MD5 check sum: a3f38e9a1a818e424be8f97771a26c64
     Pseudo is Ultrasoft + core correction, Zval = 16.0
     Generated by new atomic code, or converted to UPF format
     Using radial grid of  861 points,  6 beta functions with: 
                l(1) =   0
                l(2) =   0
                l(3) =   1
                l(4) =   1
                l(5) =   2
                l(6) =   2
     Q(r) pseudized with  8 coefficients,  rinner =    1.000   1.000   1.000
                                                       1.000   1.000

     atomic species   valence    mass     pseudopotential
        O              6.00    15.99940     O ( 1.00)
        Bi            15.00   208.98040     Bi( 1.00)
        Fe1           16.00    55.84500     Fe( 1.00)
        Fe2           16.00    55.84500     Fe( 1.00)

     Starting magnetic structure 
     atomic species   magnetization
        O            0.000
        Bi           0.000
        Fe1         -0.800
        Fe2          0.800


     Simplified LDA+U calculation (l_max = 2) with parameters (eV):
     atomic species    L          U    alpha       J0     beta
        Fe1            2     4.1000   0.0000   0.0000   0.0000
        Fe2            2     4.1000   0.0000   0.0000   0.0000



     No symmetry found


                                    s                        frac. trans.

      isym =  1     identity                                     

 cryst.   s( 1) = (     1          0          0      )
                  (     0          1          0      )
                  (     0          0          1      )

 cart.    s( 1) = (  1.0000000  0.0000000  0.0000000 )
                  (  0.0000000  1.0000000  0.0000000 )
                  (  0.0000000  0.0000000  1.0000000 )


     point group C_1 (1)    
     there are  1 classes
     the character table:

       E    
A      1.00

     the symmetry operations in each class and the name of the first element:

     E        1
          identity                                               

   Cartesian axes

     site n.     atom                  positions (alat units)
         1           Bi  tau(   1) = (   0.0000000   0.0000000   0.0000000  )
         2           Bi  tau(   2) = (   0.5000000   0.5000000   0.0000000  )
         3           Bi  tau(   3) = (   0.5000000   0.0000000   0.0000000  )
         4           Bi  tau(   4) = (   0.0000000   0.5000000   0.5000000  )
         5           Bi  tau(   5) = (   0.0000000   0.0000000   0.5000000  )
         6           Bi  tau(   6) = (   0.5000000   0.5000000   0.5000000  )
         7           Bi  tau(   7) = (   0.5000000   0.0000000   0.5000000  )
         8           Bi  tau(   8) = (   0.0000000   0.5000000   0.0000000  )
         9           Fe2 tau(   9) = (   0.2500000   0.2500000   0.2500000  )
        10           Fe2 tau(  10) = (   0.7500000   0.7500000   0.2500000  )
        11           Fe1 tau(  11) = (   0.7500000   0.2500000   0.2500000  )
        12           Fe1 tau(  12) = (   0.2500000   0.7500000   0.7500000  )
        13           Fe2 tau(  13) = (   0.2500000   0.2500000   0.7500000  )
        14           Fe2 tau(  14) = (   0.7500000   0.7500000   0.7500000  )
        15           Fe1 tau(  15) = (   0.7500000   0.2500000   0.7500000  )
        16           Fe1 tau(  16) = (   0.2500000   0.7500000   0.2500000  )
        17           O   tau(  17) = (   0.2500000   0.2500000   0.0000000  )
        18           O   tau(  18) = (   0.2500000   0.0000000   0.2500000  )
        19           O   tau(  19) = (   0.0000000   0.2500000   0.2500000  )
        20           O   tau(  20) = (   0.7500000   0.7500000   0.0000000  )
        21           O   tau(  21) = (   0.7500000   0.2500000   0.0000000  )
        22           O   tau(  22) = (   0.2500000   0.7500000   0.5000000  )
        23           O   tau(  23) = (   0.2500000   0.2500000   0.5000000  )
        24           O   tau(  24) = (   0.7500000   0.7500000   0.5000000  )
        25           O   tau(  25) = (   0.7500000   0.2500000   0.5000000  )
        26           O   tau(  26) = (   0.2500000   0.7500000   0.0000000  )
        27           O   tau(  27) = (   0.7500000   0.5000000   0.2500000  )
        28           O   tau(  28) = (   0.7500000   0.0000000   0.2500000  )
        29           O   tau(  29) = (   0.2500000   0.5000000   0.7500000  )
        30           O   tau(  30) = (   0.2500000   0.0000000   0.7500000  )
        31           O   tau(  31) = (   0.7500000   0.5000000   0.7500000  )
        32           O   tau(  32) = (   0.7500000   0.0000000   0.7500000  )
        33           O   tau(  33) = (   0.2500000   0.5000000   0.2500000  )
        34           O   tau(  34) = (   0.5000000   0.7500000   0.2500000  )
        35           O   tau(  35) = (   0.5000000   0.2500000   0.2500000  )
        36           O   tau(  36) = (   0.0000000   0.7500000   0.7500000  )
        37           O   tau(  37) = (   0.0000000   0.2500000   0.7500000  )
        38           O   tau(  38) = (   0.5000000   0.7500000   0.7500000  )
        39           O   tau(  39) = (   0.5000000   0.2500000   0.7500000  )
        40           O   tau(  40) = (   0.0000000   0.7500000   0.2500000  )

   Crystallographic axes

     site n.     atom                  positions (cryst. coord.)
         1           Bi  tau(   1) = (  0.0000000  0.0000000  0.0000000  )
         2           Bi  tau(   2) = (  0.5000000  0.5000000  0.0000000  )
         3           Bi  tau(   3) = (  0.5000000  0.0000000  0.0000000  )
         4           Bi  tau(   4) = (  0.0000000  0.5000000  0.5000000  )
         5           Bi  tau(   5) = (  0.0000000  0.0000000  0.5000000  )
         6           Bi  tau(   6) = (  0.5000000  0.5000000  0.5000000  )
         7           Bi  tau(   7) = (  0.5000000  0.0000000  0.5000000  )
         8           Bi  tau(   8) = (  0.0000000  0.5000000  0.0000000  )
         9           Fe2 tau(   9) = (  0.2500000  0.2500000  0.2500000  )
        10           Fe2 tau(  10) = (  0.7500000  0.7500000  0.2500000  )
        11           Fe1 tau(  11) = (  0.7500000  0.2500000  0.2500000  )
        12           Fe1 tau(  12) = (  0.2500000  0.7500000  0.7500000  )
        13           Fe2 tau(  13) = (  0.2500000  0.2500000  0.7500000  )
        14           Fe2 tau(  14) = (  0.7500000  0.7500000  0.7500000  )
        15           Fe1 tau(  15) = (  0.7500000  0.2500000  0.7500000  )
        16           Fe1 tau(  16) = (  0.2500000  0.7500000  0.2500000  )
        17           O   tau(  17) = (  0.2500000  0.2500000  0.0000000  )
        18           O   tau(  18) = (  0.2500000  0.0000000  0.2500000  )
        19           O   tau(  19) = (  0.0000000  0.2500000  0.2500000  )
        20           O   tau(  20) = (  0.7500000  0.7500000  0.0000000  )
        21           O   tau(  21) = (  0.7500000  0.2500000  0.0000000  )
        22           O   tau(  22) = (  0.2500000  0.7500000  0.5000000  )
        23           O   tau(  23) = (  0.2500000  0.2500000  0.5000000  )
        24           O   tau(  24) = (  0.7500000  0.7500000  0.5000000  )
        25           O   tau(  25) = (  0.7500000  0.2500000  0.5000000  )
        26           O   tau(  26) = (  0.2500000  0.7500000  0.0000000  )
        27           O   tau(  27) = (  0.7500000  0.5000000  0.2500000  )
        28           O   tau(  28) = (  0.7500000  0.0000000  0.2500000  )
        29           O   tau(  29) = (  0.2500000  0.5000000  0.7500000  )
        30           O   tau(  30) = (  0.2500000  0.0000000  0.7500000  )
        31           O   tau(  31) = (  0.7500000  0.5000000  0.7500000  )
        32           O   tau(  32) = (  0.7500000  0.0000000  0.7500000  )
        33           O   tau(  33) = (  0.2500000  0.5000000  0.2500000  )
        34           O   tau(  34) = (  0.5000000  0.7500000  0.2500000  )
        35           O   tau(  35) = (  0.5000000  0.2500000  0.2500000  )
        36           O   tau(  36) = (  0.0000000  0.7500000  0.7500000  )
        37           O   tau(  37) = (  0.0000000  0.2500000  0.7500000  )
        38           O   tau(  38) = (  0.5000000  0.7500000  0.7500000  )
        39           O   tau(  39) = (  0.5000000  0.2500000  0.7500000  )
        40           O   tau(  40) = (  0.0000000  0.7500000  0.2500000  )

     number of k points=    20
                       cart. coord. in units 2pi/alat
        k(    1) = (   0.0000000   0.0000000   0.0000000), wk =   0.0277778
        k(    2) = (   0.0000000   0.0000000   0.3333333), wk =   0.0277778
        k(    3) = (   0.0000000   0.0000000   0.6666667), wk =   0.0277778
        k(    4) = (   0.0000000   0.0000000   1.0000000), wk =   0.0277778
        k(    5) = (   0.0000000   0.3333333   0.0000000), wk =   0.0555556
        k(    6) = (   0.0000000   0.3333333   0.3333333), wk =   0.0555556
        k(    7) = (   0.0000000   0.3333333   0.6666667), wk =   0.0555556
        k(    8) = (   0.0000000   0.3333333   1.0000000), wk =   0.0555556
        k(    9) = (   0.3333333   0.0000000   0.0000000), wk =   0.0555556
        k(   10) = (   0.3333333   0.0000000   0.3333333), wk =   0.0555556
        k(   11) = (   0.3333333   0.0000000   0.6666667), wk =   0.0555556
        k(   12) = (   0.3333333   0.0000000   1.0000000), wk =   0.0555556
        k(   13) = (   0.3333333   0.3333333   0.0000000), wk =   0.0555556
        k(   14) = (   0.3333333   0.3333333   0.3333333), wk =   0.0555556
        k(   15) = (   0.3333333   0.3333333   0.6666667), wk =   0.0555556
        k(   16) = (   0.3333333   0.3333333   1.0000000), wk =   0.0555556
        k(   17) = (   0.3333333  -0.3333333   0.0000000), wk =   0.0555556
        k(   18) = (   0.3333333  -0.3333333   0.3333333), wk =   0.0555556
        k(   19) = (   0.3333333  -0.3333333   0.6666667), wk =   0.0555556
        k(   20) = (   0.3333333  -0.3333333   1.0000000), wk =   0.0555556

                       cryst. coord.
        k(    1) = (   0.0000000   0.0000000   0.0000000), wk =   0.0277778
        k(    2) = (   0.0000000   0.0000000   0.3333333), wk =   0.0277778
        k(    3) = (   0.0000000   0.0000000   0.6666667), wk =   0.0277778
        k(    4) = (   0.0000000   0.0000000   1.0000000), wk =   0.0277778
        k(    5) = (   0.0000000   0.3333333   0.0000000), wk =   0.0555556
        k(    6) = (   0.0000000   0.3333333   0.3333333), wk =   0.0555556
        k(    7) = (   0.0000000   0.3333333   0.6666667), wk =   0.0555556
        k(    8) = (   0.0000000   0.3333333   1.0000000), wk =   0.0555556
        k(    9) = (   0.3333333   0.0000000   0.0000000), wk =   0.0555556
        k(   10) = (   0.3333333   0.0000000   0.3333333), wk =   0.0555556
        k(   11) = (   0.3333333   0.0000000   0.6666667), wk =   0.0555556
        k(   12) = (   0.3333333   0.0000000   1.0000000), wk =   0.0555556
        k(   13) = (   0.3333333   0.3333333   0.0000000), wk =   0.0555556
        k(   14) = (   0.3333333   0.3333333   0.3333333), wk =   0.0555556
        k(   15) = (   0.3333333   0.3333333   0.6666667), wk =   0.0555556
        k(   16) = (   0.3333333   0.3333333   1.0000000), wk =   0.0555556
        k(   17) = (   0.3333333  -0.3333333   0.0000000), wk =   0.0555556
        k(   18) = (   0.3333333  -0.3333333   0.3333333), wk =   0.0555556
        k(   19) = (   0.3333333  -0.3333333   0.6666667), wk =   0.0555556
        k(   20) = (   0.3333333  -0.3333333   1.0000000), wk =   0.0555556

     Dense  grid:   262515 G-vectors     FFT dimensions: (  80,  80,  80)

     Smooth grid:    92589 G-vectors     FFT dimensions: (  60,  60,  60)

     Dynamical RAM for                 wfc:       8.67 MB

     Dynamical RAM for     wfc (w. buffer):       8.67 MB

     Dynamical RAM for             U proj.:       1.77 MB

     Dynamical RAM for  U proj. (w. buff.):       1.77 MB

     Dynamical RAM for           str. fact:       4.01 MB

     Dynamical RAM for           local pot:       0.00 MB

     Dynamical RAM for          nlocal pot:      26.54 MB

     Dynamical RAM for                qrad:       5.37 MB

     Dynamical RAM for          rho,v,vnew:      11.87 MB

     Dynamical RAM for           G-vectors:       3.93 MB

     Dynamical RAM for          h,s,v(r/c):       0.44 MB

     Dynamical RAM for          <psi|beta>:       1.79 MB

     Dynamical RAM for      wfcinit/wfcrot:      25.76 MB

     Dynamical RAM for           addusdens:     211.30 MB

     Estimated static dynamical RAM per process >      73.03 MB

     Estimated max dynamical RAM per process >     284.33 MB

     Estimated total dynamical RAM >       1.11 GB

     Check: negative core charge=   -0.000020
     Generating pointlists ...
     new r_m :   0.1031 (alat units)  1.5380 (a.u.) for type    1
     new r_m :   0.1458 (alat units)  2.1750 (a.u.) for type    2
     new r_m :   0.1031 (alat units)  1.5380 (a.u.) for type    3
     new r_m :   0.1031 (alat units)  1.5380 (a.u.) for type    4

     The potential is recalculated from file :
     /home/aldair1809/Documentos/QE/4BFO/temp_cubic/nscf/bifeo3.save/charge-density


     negative rho (up, down):  1.646E-01 1.646E-01
 --- in v_hubbard ---
Hubbard energy    0.9441
 -------
     Number of +U iterations with fixed ns =  0
     Starting occupations:
 --- enter write_ns ---
 LDA+U parameters:
U( 3)     =  4.10000000
U( 4)     =  4.10000000
atom    9   Tr[ns(na)] (up, down, total) =   4.96101  1.03670  5.99772
   spin  1
    eigenvalues: 
  0.988  0.988  0.995  0.995  0.995
    eigenvectors:
  1.000  0.000  0.000  0.000  0.000
  0.000  0.000  0.000  0.500  0.500
  0.000  0.000  0.000  0.500  0.500
  0.000  1.000  0.000  0.000  0.000
  0.000  0.000  1.000  0.000  0.000
    occupations:
  0.988  0.000  0.000 -0.000  0.000
  0.000  0.995  0.000 -0.000 -0.000
  0.000  0.000  0.995  0.000 -0.000
 -0.000 -0.000  0.000  0.988 -0.000
  0.000 -0.000 -0.000 -0.000  0.995
   spin  2
    eigenvalues: 
  0.106  0.108  0.108  0.325  0.390
    eigenvectors:
  0.000  0.000  0.000  1.000  0.000
  0.000  0.500  0.500  0.000  0.000
  0.000  0.500  0.500  0.000  0.000
  0.000  0.000  0.000  0.000  1.000
  1.000  0.000  0.000  0.000  0.000
    occupations:
  0.325  0.000  0.000 -0.000 -0.000
  0.000  0.108 -0.000 -0.000 -0.000
  0.000 -0.000  0.108  0.000 -0.000
 -0.000 -0.000  0.000  0.390 -0.000
 -0.000 -0.000 -0.000 -0.000  0.106
atomic mag. moment =   3.92431
atom   10   Tr[ns(na)] (up, down, total) =   4.96101  1.03670  5.99772
   spin  1
    eigenvalues: 
  0.988  0.988  0.995  0.995  0.995
    eigenvectors:
  1.000  0.000  0.000  0.000  0.000
  0.000  0.000  0.000  0.500  0.500
  0.000  0.000  0.000  0.500  0.500
  0.000  1.000  0.000  0.000  0.000
  0.000  0.000  1.000  0.000  0.000
    occupations:
  0.988 -0.000 -0.000 -0.000  0.000
 -0.000  0.995  0.000  0.000  0.000
 -0.000  0.000  0.995 -0.000  0.000
 -0.000  0.000 -0.000  0.988 -0.000
  0.000  0.000  0.000 -0.000  0.995
   spin  2
    eigenvalues: 
  0.106  0.108  0.108  0.325  0.390
    eigenvectors:
  0.000  0.000  0.000  1.000  0.000
  0.000  0.500  0.500  0.000  0.000
  0.000  0.500  0.500  0.000  0.000
  0.000  0.000  0.000  0.000  1.000
  1.000  0.000  0.000  0.000  0.000
    occupations:
  0.325 -0.000 -0.000 -0.000 -0.000
 -0.000  0.108 -0.000  0.000  0.000
 -0.000 -0.000  0.108 -0.000  0.000
 -0.000  0.000 -0.000  0.390 -0.000
 -0.000  0.000  0.000 -0.000  0.106
atomic mag. moment =   3.92431
atom   11   Tr[ns(na)] (up, down, total) =   1.03673  4.96103  5.99777
   spin  1
    eigenvalues: 
  0.106  0.108  0.108  0.325  0.390
    eigenvectors:
  0.000  0.000  0.000  1.000  0.000
  0.000  0.500  0.500  0.000  0.000
  0.000  0.500  0.500  0.000  0.000
  0.000  0.000  0.000  0.000  1.000
  1.000  0.000  0.000  0.000  0.000
    occupations:
  0.325 -0.000  0.000 -0.000 -0.000
 -0.000  0.108  0.000  0.000 -0.000
  0.000  0.000  0.108  0.000  0.000
 -0.000  0.000  0.000  0.390 -0.000
 -0.000 -0.000  0.000 -0.000  0.106
   spin  2
    eigenvalues: 
  0.988  0.988  0.995  0.995  0.995
    eigenvectors:
  1.000  0.000  0.000  0.000  0.000
  0.000  0.000  0.000  0.500  0.500
  0.000  0.000  0.000  0.500  0.500
  0.000  1.000  0.000  0.000  0.000
  0.000  0.000  1.000  0.000  0.000
    occupations:
  0.988  0.000 -0.000 -0.000  0.000
  0.000  0.995 -0.000 -0.000  0.000
 -0.000 -0.000  0.995 -0.000 -0.000
 -0.000 -0.000 -0.000  0.988 -0.000
  0.000  0.000 -0.000 -0.000  0.995
atomic mag. moment =  -3.92430
atom   12   Tr[ns(na)] (up, down, total) =   1.03673  4.96103  5.99777
   spin  1
    eigenvalues: 
  0.106  0.108  0.108  0.325  0.390
    eigenvectors:
  0.000  0.000  0.000  1.000  0.000
  0.000  0.500  0.500  0.000  0.000
  0.000  0.500  0.500  0.000  0.000
  0.000  0.000  0.000  0.000  1.000
  1.000  0.000  0.000  0.000  0.000
    occupations:
  0.325 -0.000  0.000 -0.000 -0.000
 -0.000  0.108  0.000  0.000 -0.000
  0.000  0.000  0.108  0.000  0.000
 -0.000  0.000  0.000  0.390 -0.000
 -0.000 -0.000  0.000 -0.000  0.106
   spin  2
    eigenvalues: 
  0.988  0.988  0.995  0.995  0.995
    eigenvectors:
  1.000  0.000  0.000  0.000  0.000
  0.000  0.000  0.000  0.500  0.500
  0.000  0.000  0.000  0.500  0.500
  0.000  1.000  0.000  0.000  0.000
  0.000  0.000  1.000  0.000  0.000
    occupations:
  0.988  0.000 -0.000 -0.000  0.000
  0.000  0.995 -0.000 -0.000  0.000
 -0.000 -0.000  0.995 -0.000 -0.000
 -0.000 -0.000 -0.000  0.988 -0.000
  0.000  0.000 -0.000 -0.000  0.995
atomic mag. moment =  -3.92430
atom   13   Tr[ns(na)] (up, down, total) =   4.96101  1.03670  5.99772
   spin  1
    eigenvalues: 
  0.988  0.988  0.995  0.995  0.995
    eigenvectors:
  1.000  0.000  0.000  0.000  0.000
  0.000  0.000  0.000  0.500  0.500
  0.000  0.000  0.000  0.500  0.500
  0.000  1.000  0.000  0.000  0.000
  0.000  0.000  1.000  0.000  0.000
    occupations:
  0.988 -0.000 -0.000 -0.000  0.000
 -0.000  0.995  0.000  0.000  0.000
 -0.000  0.000  0.995 -0.000  0.000
 -0.000  0.000 -0.000  0.988 -0.000
  0.000  0.000  0.000 -0.000  0.995
   spin  2
    eigenvalues: 
  0.106  0.108  0.108  0.325  0.390
    eigenvectors:
  0.000  0.000  0.000  1.000  0.000
  0.000  0.500  0.500  0.000  0.000
  0.000  0.500  0.500  0.000  0.000
  0.000  0.000  0.000  0.000  1.000
  1.000  0.000  0.000  0.000  0.000
    occupations:
  0.325 -0.000 -0.000 -0.000 -0.000
 -0.000  0.108 -0.000  0.000  0.000
 -0.000 -0.000  0.108 -0.000  0.000
 -0.000  0.000 -0.000  0.390 -0.000
 -0.000  0.000  0.000 -0.000  0.106
atomic mag. moment =   3.92431
atom   14   Tr[ns(na)] (up, down, total) =   4.96101  1.03670  5.99772
   spin  1
    eigenvalues: 
  0.988  0.988  0.995  0.995  0.995
    eigenvectors:
  1.000  0.000  0.000  0.000  0.000
  0.000  0.000  0.000  0.500  0.500
  0.000  0.000  0.000  0.500  0.500
  0.000  1.000  0.000  0.000  0.000
  0.000  0.000  1.000  0.000  0.000
    occupations:
  0.988  0.000  0.000 -0.000  0.000
  0.000  0.995  0.000 -0.000 -0.000
  0.000  0.000  0.995  0.000 -0.000
 -0.000 -0.000  0.000  0.988 -0.000
  0.000 -0.000 -0.000 -0.000  0.995
   spin  2
    eigenvalues: 
  0.106  0.108  0.108  0.325  0.390
    eigenvectors:
  0.000  0.000  0.000  1.000  0.000
  0.000  0.500  0.500  0.000  0.000
  0.000  0.500  0.500  0.000  0.000
  0.000  0.000  0.000  0.000  1.000
  1.000  0.000  0.000  0.000  0.000
    occupations:
  0.325  0.000  0.000 -0.000 -0.000
  0.000  0.108 -0.000 -0.000 -0.000
  0.000 -0.000  0.108  0.000 -0.000
 -0.000 -0.000  0.000  0.390 -0.000
 -0.000 -0.000 -0.000 -0.000  0.106
atomic mag. moment =   3.92431
atom   15   Tr[ns(na)] (up, down, total) =   1.03673  4.96103  5.99777
   spin  1
    eigenvalues: 
  0.106  0.108  0.108  0.325  0.390
    eigenvectors:
  0.000  0.000  0.000  1.000  0.000
  0.000  0.500  0.500  0.000  0.000
  0.000  0.500  0.500  0.000  0.000
  0.000  0.000  0.000  0.000  1.000
  1.000  0.000  0.000  0.000  0.000
    occupations:
  0.325  0.000 -0.000 -0.000 -0.000
  0.000  0.108  0.000 -0.000  0.000
 -0.000  0.000  0.108 -0.000 -0.000
 -0.000 -0.000 -0.000  0.390 -0.000
 -0.000  0.000 -0.000 -0.000  0.106
   spin  2
    eigenvalues: 
  0.988  0.988  0.995  0.995  0.995
    eigenvectors:
  1.000  0.000  0.000  0.000  0.000
  0.000  0.000  0.000  0.500  0.500
  0.000  0.000  0.000  0.500  0.500
  0.000  1.000  0.000  0.000  0.000
  0.000  0.000  1.000  0.000  0.000
    occupations:
  0.988 -0.000  0.000 -0.000  0.000
 -0.000  0.995 -0.000  0.000 -0.000
  0.000 -0.000  0.995  0.000  0.000
 -0.000  0.000  0.000  0.988 -0.000
  0.000 -0.000  0.000 -0.000  0.995
atomic mag. moment =  -3.92430
atom   16   Tr[ns(na)] (up, down, total) =   1.03673  4.96103  5.99777
   spin  1
    eigenvalues: 
  0.106  0.108  0.108  0.325  0.390
    eigenvectors:
  0.000  0.000  0.000  1.000  0.000
  0.000  0.500  0.500  0.000  0.000
  0.000  0.500  0.500  0.000  0.000
  0.000  0.000  0.000  0.000  1.000
  1.000  0.000  0.000  0.000  0.000
    occupations:
  0.325  0.000 -0.000 -0.000 -0.000
  0.000  0.108  0.000 -0.000  0.000
 -0.000  0.000  0.108 -0.000 -0.000
 -0.000 -0.000 -0.000  0.390 -0.000
 -0.000  0.000 -0.000 -0.000  0.106
   spin  2
    eigenvalues: 
  0.988  0.988  0.995  0.995  0.995
    eigenvectors:
  1.000  0.000  0.000  0.000  0.000
  0.000  0.000  0.000  0.500  0.500
  0.000  0.000  0.000  0.500  0.500
  0.000  1.000  0.000  0.000  0.000
  0.000  0.000  1.000  0.000  0.000
    occupations:
  0.988 -0.000  0.000 -0.000  0.000
 -0.000  0.995 -0.000  0.000 -0.000
  0.000 -0.000  0.995  0.000  0.000
 -0.000  0.000  0.000  0.988 -0.000
  0.000 -0.000  0.000 -0.000  0.995
atomic mag. moment =  -3.92430
N of occupied +U levels =   47.981921
 --- exit write_ns ---
 Atomic wfc used for LDA+U Projector are NOT orthogonalized
     Starting wfcs are  272 randomized atomic wfcs

     Band Structure Calculation
     CG style diagonalization

     Computing kpt #:     1  of    40
     total cpu time spent up to now is      431.2 secs

     Computing kpt #:     2  of    40
     total cpu time spent up to now is      719.1 secs

     Computing kpt #:     3  of    40
     total cpu time spent up to now is     1012.7 secs

     Computing kpt #:     4  of    40
     total cpu time spent up to now is     1305.1 secs

     Computing kpt #:     5  of    40
     total cpu time spent up to now is     1595.0 secs

     Computing kpt #:     6  of    40
     total cpu time spent up to now is     1886.7 secs

     Computing kpt #:     7  of    40
     total cpu time spent up to now is     2177.8 secs

     Computing kpt #:     8  of    40
     total cpu time spent up to now is     2474.7 secs

     Computing kpt #:     9  of    40
     total cpu time spent up to now is     2760.3 secs

     Computing kpt #:    10  of    40
     total cpu time spent up to now is     3048.8 secs

     Computing kpt #:    11  of    40
     total cpu time spent up to now is     3337.7 secs

     Computing kpt #:    12  of    40
     total cpu time spent up to now is     3624.0 secs

     Computing kpt #:    13  of    40
     total cpu time spent up to now is     3906.5 secs

     Computing kpt #:    14  of    40
     total cpu time spent up to now is     4186.8 secs

     Computing kpt #:    15  of    40
     total cpu time spent up to now is     4465.2 secs

     Computing kpt #:    16  of    40
     total cpu time spent up to now is     4745.4 secs

     Computing kpt #:    17  of    40
     total cpu time spent up to now is     5026.4 secs

     Computing kpt #:    18  of    40
     total cpu time spent up to now is     5308.7 secs

     Computing kpt #:    19  of    40
     total cpu time spent up to now is     5588.2 secs

     Computing kpt #:    20  of    40
     total cpu time spent up to now is     5870.0 secs

     Computing kpt #:    21  of    40
     total cpu time spent up to now is     6157.9 secs

     Computing kpt #:    22  of    40
     total cpu time spent up to now is     6439.9 secs

     Computing kpt #:    23  of    40
     total cpu time spent up to now is     6726.3 secs

     Computing kpt #:    24  of    40
     total cpu time spent up to now is     7035.9 secs

     Computing kpt #:    25  of    40
     total cpu time spent up to now is     7327.7 secs

     Computing kpt #:    26  of    40
     total cpu time spent up to now is     7613.2 secs

     Computing kpt #:    27  of    40
     total cpu time spent up to now is     7905.3 secs

     Computing kpt #:    28  of    40
     total cpu time spent up to now is     8198.1 secs

     Computing kpt #:    29  of    40
     total cpu time spent up to now is     8479.1 secs

     Computing kpt #:    30  of    40
     total cpu time spent up to now is     8763.0 secs

     Computing kpt #:    31  of    40
     total cpu time spent up to now is     9048.8 secs

     Computing kpt #:    32  of    40
     total cpu time spent up to now is     9337.5 secs

     Computing kpt #:    33  of    40
     total cpu time spent up to now is     9618.1 secs

     Computing kpt #:    34  of    40
     total cpu time spent up to now is     9897.1 secs

     Computing kpt #:    35  of    40
     total cpu time spent up to now is    10177.0 secs

     Computing kpt #:    36  of    40
     total cpu time spent up to now is    10457.3 secs

     Computing kpt #:    37  of    40
     total cpu time spent up to now is    10735.4 secs

     Computing kpt #:    38  of    40
     total cpu time spent up to now is    11014.6 secs

     Computing kpt #:    39  of    40
     total cpu time spent up to now is    11300.9 secs

     Computing kpt #:    40  of    40
     total cpu time spent up to now is    11589.0 secs

     ethr =  2.55E-11,  avg # of iterations = 39.2

     total cpu time spent up to now is    11589.0 secs

     End of band structure calculation

 ------ SPIN UP ------------


          k = 0.0000 0.0000 0.0000 ( 11633 PWs)   bands (ev):

   -78.9092 -78.9092 -78.9092 -78.9092 -73.7330 -73.7330 -73.7329 -73.7329
   -45.0795 -45.0794 -45.0787 -45.0784 -44.9772 -44.9772 -44.9770 -44.9770
   -44.9769 -44.9769 -44.9769 -44.9769 -40.0020 -40.0019 -40.0003 -40.0001
   -39.9758 -39.9757 -39.9756 -39.9756 -39.9756 -39.9756 -39.9755 -39.9755
   -11.7563 -11.7523 -11.7476 -11.7470 -11.7441 -11.7440 -11.7439 -11.7426
   -11.7426 -11.7411 -11.7399 -11.7249 -11.7222 -11.7222 -11.7140 -11.7113
   -11.7113 -11.7102 -11.7101 -11.7100 -11.7099 -11.7086 -11.7085 -11.7084
   -11.7081 -11.7069 -11.7069 -11.7058 -11.7058 -11.6948 -11.6947 -11.6933
   -11.6929 -11.6916 -11.6906 -11.6851 -11.6847 -11.6834 -11.6819 -11.6802
    -7.0564  -6.3730  -6.2980  -6.2524  -5.7441  -5.6861  -5.6526  -5.6161
    -5.6161  -5.6106  -5.5590  -5.4289  -5.4289  -5.4289  -5.4289  -5.3665
    -5.2758  -5.2588  -5.2588  -5.2339  -5.2272  -5.2000  -5.0836  -5.0289
     0.6543   0.6543   0.6571   1.1293   1.1293   1.1308   1.7528   1.9343
     3.7771   3.8194   4.1593   4.1593   4.2704   4.3106   4.3799   4.7909
     4.7991   4.8546   4.8894   5.0046   5.0317   5.1188   5.1188   5.1208
     5.1208   5.2091   5.2091   5.2800   5.3852   5.9509   6.4083   6.4216
     6.4216   6.6948   6.6948   6.9345   7.1126   7.1314   7.4079   7.5750
     7.5750   7.5756   7.5756   7.6008   7.6092   7.6092   7.6174   7.6174
     7.6195   7.7376   8.1071   8.1734   8.2754   8.2754   8.2765   8.3654
     8.7777   8.7777   8.8101   8.8675   8.8675   9.0611   9.0611   9.3562
     9.3601   9.3602   9.4041   9.4041   9.4481   9.4675   9.7499   9.7594
     9.7594   9.9814   9.9814   9.9989  10.0593  10.0741  10.0873  10.0873
    10.1203  10.1762  10.1762  10.1762  10.1808  10.1808  10.2497  10.2520
    10.2576  10.3141  10.3419  10.3419  10.8932  10.9011  10.9011  10.9209
    10.9311  10.9311  11.6047  11.6913

     occupation numbers 
     1.0000   1.0000   1.0000   1.0000   1.0000   1.0000   1.0000   1.0000
     1.0000   1.0000   1.0000   1.0000   1.0000   1.0000   1.0000   1.0000
     1.0000   1.0000   1.0000   1.0000   1.0000   1.0000   1.0000   1.0000
     1.0000   1.0000   1.0000   1.0000   1.0000   1.0000   1.0000   1.0000
     1.0000   1.0000   1.0000   1.0000   1.0000   1.0000   1.0000   1.0000
     1.0000   1.0000   1.0000   1.0000   1.0000   1.0000   1.0000   1.0000
     1.0000   1.0000   1.0000   1.0000   1.0000   1.0000   1.0000   1.0000
     1.0000   1.0000   1.0000   1.0000   1.0000   1.0000   1.0000   1.0000
     1.0000   1.0000   1.0000   1.0000   1.0000   1.0000   1.0000   1.0000
     1.0000   1.0000   1.0000   1.0000   1.0000   1.0000   1.0000   1.0000
     1.0000   1.0000   1.0000   1.0000   1.0000   1.0000   1.0000   1.0000
     1.0000   1.0000   1.0000   1.0000   1.0000   1.0000   1.0000   1.0000
     1.0000   1.0000   1.0000   1.0000   1.0000   1.0000   1.0000   1.0000
     1.0000   1.0000   1.0000   1.0000   1.0000   1.0000   1.0000   1.0000
     1.0000   1.0000   1.0000   1.0000   1.0000   1.0000   1.0000   1.0000
     1.0000   1.0000   1.0000   1.0000   1.0000   1.0000   1.0000   1.0000
     1.0000   1.0000   1.0000   1.0000   1.0000   1.0000   1.0000   1.0000
     1.0000   1.0000   1.0000   1.0000   1.0000   1.0000   1.0000   1.0000
     1.0000   1.0000   1.0000   1.0000   1.0000   1.0000   1.0000   1.0000
     1.0000   1.0000   1.0000   1.0000   1.0000   1.0000   1.0000   1.0000
     1.0000   1.0000   1.0000   1.0000   1.0000   1.0000   1.0000   1.0000
     1.0000   1.0000   1.0000   1.0000   1.0000   1.0000   1.0000   1.0000
     1.0000   1.0000   1.0000   1.0000   1.0000   1.0000   1.0000   1.0000
     1.0000   1.0000   1.0000   1.0000   1.0000   1.0000   1.0000   1.0000
     1.0000   1.0000   1.0000   1.0000

          k = 0.0000 0.0000 0.3333 ( 11592 PWs)   bands (ev):

   -78.9092 -78.9092 -78.9092 -78.9092 -73.7330 -73.7330 -73.7329 -73.7329
   -45.0793 -45.0791 -45.0789 -45.0788 -44.9771 -44.9771 -44.9769 -44.9769
   -44.9769 -44.9769 -44.9769 -44.9768 -40.0015 -40.0014 -40.0007 -40.0006
   -39.9757 -39.9757 -39.9756 -39.9756 -39.9755 -39.9755 -39.9755 -39.9755
   -11.7494 -11.7465 -11.7437 -11.7422 -11.7409 -11.7383 -11.7377 -11.7366
   -11.7366 -11.7341 -11.7341 -11.7260 -11.7258 -11.7243 -11.7196 -11.7192
   -11.7170 -11.7170 -11.7149 -11.7070 -11.7070 -11.7062 -11.7061 -11.7061
   -11.7061 -11.7060 -11.7060 -11.7046 -11.7043 -11.6986 -11.6985 -11.6971
   -11.6970 -11.6947 -11.6930 -11.6928 -11.6913 -11.6906 -11.6816 -11.6806
    -6.9179  -6.5670  -6.2400  -6.1452  -5.9161  -5.8821  -5.6623  -5.5715
    -5.5715  -5.5586  -5.4780  -5.4780  -5.4025  -5.3872  -5.3872  -5.3632
    -5.3022  -5.3021  -5.2322  -5.2288  -5.2121  -5.1604  -5.1243  -5.0570
     0.7758   0.7758   0.8570   1.0134   1.0134   1.2851   1.3746   1.6830
     4.1560   4.2368   4.3085   4.3615   4.3774   4.3774   4.6850   4.7506
     4.7934   4.7978   4.8845   4.8845   4.9258   4.9968   5.0243   5.0973
     5.0973   5.0982   5.0982   5.2450   5.2546   6.0206   6.1279   6.4903
     6.6226   6.6226   6.7551   6.7551   7.0128   7.2129   7.2276   7.3813
     7.3813   7.4054   7.4054   7.4248   7.4928   7.6919   7.6919   7.7404
     7.7404   7.8992   8.0969   8.0969   8.1556   8.2592   8.3213   8.3213
     8.5454   8.5966   8.6066   9.1347   9.2739   9.2739   9.2817   9.2817
     9.3029   9.4495   9.5175   9.5175   9.5209   9.5891   9.6450   9.8121
     9.8121   9.8854   9.9611   9.9611  10.0646  10.0646  10.0897  10.0897
    10.0991  10.0991  10.1088  10.1088  10.1590  10.1694  10.2039  10.2039
    10.2522  10.2563  10.4098  10.4209  10.6499  10.6499  10.6723  10.6723
    10.9007  10.9142  11.3388  11.4798

     occupation numbers 
     1.0000   1.0000   1.0000   1.0000   1.0000   1.0000   1.0000   1.0000
     1.0000   1.0000   1.0000   1.0000   1.0000   1.0000   1.0000   1.0000
     1.0000   1.0000   1.0000   1.0000   1.0000   1.0000   1.0000   1.0000
     1.0000   1.0000   1.0000   1.0000   1.0000   1.0000   1.0000   1.0000
     1.0000   1.0000   1.0000   1.0000   1.0000   1.0000   1.0000   1.0000
     1.0000   1.0000   1.0000   1.0000   1.0000   1.0000   1.0000   1.0000
     1.0000   1.0000   1.0000   1.0000   1.0000   1.0000   1.0000   1.0000
     1.0000   1.0000   1.0000   1.0000   1.0000   1.0000   1.0000   1.0000
     1.0000   1.0000   1.0000   1.0000   1.0000   1.0000   1.0000   1.0000
     1.0000   1.0000   1.0000   1.0000   1.0000   1.0000   1.0000   1.0000
     1.0000   1.0000   1.0000   1.0000   1.0000   1.0000   1.0000   1.0000
     1.0000   1.0000   1.0000   1.0000   1.0000   1.0000   1.0000   1.0000
     1.0000   1.0000   1.0000   1.0000   1.0000   1.0000   1.0000   1.0000
     1.0000   1.0000   1.0000   1.0000   1.0000   1.0000   1.0000   1.0000
     1.0000   1.0000   1.0000   1.0000   1.0000   1.0000   1.0000   1.0000
     1.0000   1.0000   1.0000   1.0000   1.0000   1.0000   1.0000   1.0000
     1.0000   1.0000   1.0000   1.0000   1.0000   1.0000   1.0000   1.0000
     1.0000   1.0000   1.0000   1.0000   1.0000   1.0000   1.0000   1.0000
     1.0000   1.0000   1.0000   1.0000   1.0000   1.0000   1.0000   1.0000
     1.0000   1.0000   1.0000   1.0000   1.0000   1.0000   1.0000   1.0000
     1.0000   1.0000   1.0000   1.0000   1.0000   1.0000   1.0000   1.0000
     1.0000   1.0000   1.0000   1.0000   1.0000   1.0000   1.0000   1.0000
     1.0000   1.0000   1.0000   1.0000   1.0000   1.0000   1.0000   1.0000
     1.0000   1.0000   1.0000   1.0000   1.0000   1.0000   1.0000   1.0000
     1.0000   1.0000   1.0000   1.0000

          k = 0.0000 0.0000 0.6667 ( 11592 PWs)   bands (ev):

   -78.9092 -78.9092 -78.9092 -78.9092 -73.7330 -73.7330 -73.7329 -73.7329
   -45.0793 -45.0791 -45.0789 -45.0788 -44.9771 -44.9771 -44.9769 -44.9769
   -44.9769 -44.9769 -44.9769 -44.9768 -40.0015 -40.0014 -40.0007 -40.0006
   -39.9757 -39.9757 -39.9756 -39.9756 -39.9755 -39.9755 -39.9755 -39.9755
   -11.7494 -11.7465 -11.7437 -11.7422 -11.7409 -11.7383 -11.7377 -11.7366
   -11.7366 -11.7341 -11.7341 -11.7260 -11.7258 -11.7243 -11.7196 -11.7192
   -11.7170 -11.7170 -11.7149 -11.7070 -11.7070 -11.7062 -11.7061 -11.7061
   -11.7061 -11.7060 -11.7060 -11.7046 -11.7043 -11.6986 -11.6985 -11.6971
   -11.6970 -11.6947 -11.6930 -11.6928 -11.6913 -11.6906 -11.6816 -11.6806
    -6.9179  -6.5670  -6.2400  -6.1452  -5.9161  -5.8821  -5.6623  -5.5715
    -5.5715  -5.5586  -5.4780  -5.4780  -5.4025  -5.3872  -5.3872  -5.3632
    -5.3022  -5.3021  -5.2322  -5.2288  -5.2121  -5.1604  -5.1243  -5.0570
     0.7758   0.7758   0.8570   1.0134   1.0134   1.2851   1.3746   1.6830
     4.1560   4.2368   4.3085   4.3615   4.3774   4.3774   4.6850   4.7506
     4.7934   4.7978   4.8845   4.8845   4.9258   4.9968   5.0243   5.0973
     5.0973   5.0982   5.0982   5.2450   5.2546   6.0206   6.1279   6.4903
     6.6226   6.6226   6.7551   6.7551   7.0128   7.2129   7.2276   7.3813
     7.3813   7.4054   7.4054   7.4248   7.4928   7.6919   7.6919   7.7404
     7.7404   7.8992   8.0969   8.0969   8.1556   8.2592   8.3213   8.3213
     8.5454   8.5966   8.6066   9.1347   9.2739   9.2739   9.2817   9.2817
     9.3029   9.4495   9.5175   9.5175   9.5209   9.5891   9.6450   9.8121
     9.8121   9.8854   9.9611   9.9611  10.0646  10.0646  10.0897  10.0897
    10.0991  10.0991  10.1088  10.1088  10.1590  10.1694  10.2039  10.2039
    10.2522  10.2563  10.4098  10.4209  10.6499  10.6499  10.6723  10.6723
    10.9007  10.9142  11.3388  11.4798

     occupation numbers 
     1.0000   1.0000   1.0000   1.0000   1.0000   1.0000   1.0000   1.0000
     1.0000   1.0000   1.0000   1.0000   1.0000   1.0000   1.0000   1.0000
     1.0000   1.0000   1.0000   1.0000   1.0000   1.0000   1.0000   1.0000
     1.0000   1.0000   1.0000   1.0000   1.0000   1.0000   1.0000   1.0000
     1.0000   1.0000   1.0000   1.0000   1.0000   1.0000   1.0000   1.0000
     1.0000   1.0000   1.0000   1.0000   1.0000   1.0000   1.0000   1.0000
     1.0000   1.0000   1.0000   1.0000   1.0000   1.0000   1.0000   1.0000
     1.0000   1.0000   1.0000   1.0000   1.0000   1.0000   1.0000   1.0000
     1.0000   1.0000   1.0000   1.0000   1.0000   1.0000   1.0000   1.0000
     1.0000   1.0000   1.0000   1.0000   1.0000   1.0000   1.0000   1.0000
     1.0000   1.0000   1.0000   1.0000   1.0000   1.0000   1.0000   1.0000
     1.0000   1.0000   1.0000   1.0000   1.0000   1.0000   1.0000   1.0000
     1.0000   1.0000   1.0000   1.0000   1.0000   1.0000   1.0000   1.0000
     1.0000   1.0000   1.0000   1.0000   1.0000   1.0000   1.0000   1.0000
     1.0000   1.0000   1.0000   1.0000   1.0000   1.0000   1.0000   1.0000
     1.0000   1.0000   1.0000   1.0000   1.0000   1.0000   1.0000   1.0000
     1.0000   1.0000   1.0000   1.0000   1.0000   1.0000   1.0000   1.0000
     1.0000   1.0000   1.0000   1.0000   1.0000   1.0000   1.0000   1.0000
     1.0000   1.0000   1.0000   1.0000   1.0000   1.0000   1.0000   1.0000
     1.0000   1.0000   1.0000   1.0000   1.0000   1.0000   1.0000   1.0000
     1.0000   1.0000   1.0000   1.0000   1.0000   1.0000   1.0000   1.0000
     1.0000   1.0000   1.0000   1.0000   1.0000   1.0000   1.0000   1.0000
     1.0000   1.0000   1.0000   1.0000   1.0000   1.0000   1.0000   1.0000
     1.0000   1.0000   1.0000   1.0000   1.0000   1.0000   1.0000   1.0000
     1.0000   1.0000   1.0000   1.0000

          k = 0.0000 0.0000 1.0000 ( 11633 PWs)   bands (ev):

   -78.9092 -78.9092 -78.9092 -78.9092 -73.7330 -73.7330 -73.7329 -73.7329
   -45.0795 -45.0794 -45.0787 -45.0784 -44.9772 -44.9772 -44.9770 -44.9770
   -44.9769 -44.9769 -44.9769 -44.9769 -40.0020 -40.0019 -40.0003 -40.0001
   -39.9758 -39.9757 -39.9756 -39.9756 -39.9756 -39.9756 -39.9755 -39.9755
   -11.7563 -11.7523 -11.7476 -11.7470 -11.7441 -11.7440 -11.7439 -11.7426
   -11.7426 -11.7411 -11.7399 -11.7249 -11.7222 -11.7222 -11.7140 -11.7113
   -11.7113 -11.7102 -11.7101 -11.7100 -11.7099 -11.7086 -11.7085 -11.7084
   -11.7081 -11.7069 -11.7069 -11.7058 -11.7058 -11.6948 -11.6947 -11.6933
   -11.6929 -11.6916 -11.6906 -11.6851 -11.6847 -11.6834 -11.6819 -11.6802
    -7.0564  -6.3730  -6.2980  -6.2524  -5.7441  -5.6861  -5.6526  -5.6161
    -5.6161  -5.6106  -5.5590  -5.4289  -5.4289  -5.4289  -5.4289  -5.3665
    -5.2758  -5.2588  -5.2588  -5.2339  -5.2272  -5.2000  -5.0836  -5.0289
     0.6543   0.6543   0.6571   1.1293   1.1293   1.1308   1.7528   1.9343
     3.7771   3.8194   4.1593   4.1593   4.2704   4.3106   4.3799   4.7909
     4.7991   4.8546   4.8894   5.0046   5.0317   5.1188   5.1188   5.1208
     5.1208   5.2091   5.2091   5.2800   5.3852   5.9509   6.4083   6.4216
     6.4216   6.6948   6.6948   6.9345   7.1126   7.1314   7.4079   7.5750
     7.5750   7.5756   7.5756   7.6008   7.6092   7.6092   7.6174   7.6174
     7.6195   7.7376   8.1071   8.1734   8.2754   8.2754   8.2765   8.3654
     8.7777   8.7777   8.8101   8.8675   8.8675   9.0611   9.0611   9.3562
     9.3601   9.3602   9.4041   9.4041   9.4481   9.4675   9.7499   9.7594
     9.7594   9.9814   9.9814   9.9989  10.0593  10.0741  10.0873  10.0873
    10.1203  10.1762  10.1762  10.1762  10.1808  10.1808  10.2497  10.2520
    10.2576  10.3141  10.3419  10.3419  10.8932  10.9011  10.9011  10.9209
    10.9311  10.9311  11.6047  11.6913

     occupation numbers 
     1.0000   1.0000   1.0000   1.0000   1.0000   1.0000   1.0000   1.0000
     1.0000   1.0000   1.0000   1.0000   1.0000   1.0000   1.0000   1.0000
     1.0000   1.0000   1.0000   1.0000   1.0000   1.0000   1.0000   1.0000
     1.0000   1.0000   1.0000   1.0000   1.0000   1.0000   1.0000   1.0000
     1.0000   1.0000   1.0000   1.0000   1.0000   1.0000   1.0000   1.0000
     1.0000   1.0000   1.0000   1.0000   1.0000   1.0000   1.0000   1.0000
     1.0000   1.0000   1.0000   1.0000   1.0000   1.0000   1.0000   1.0000
     1.0000   1.0000   1.0000   1.0000   1.0000   1.0000   1.0000   1.0000
     1.0000   1.0000   1.0000   1.0000   1.0000   1.0000   1.0000   1.0000
     1.0000   1.0000   1.0000   1.0000   1.0000   1.0000   1.0000   1.0000
     1.0000   1.0000   1.0000   1.0000   1.0000   1.0000   1.0000   1.0000
     1.0000   1.0000   1.0000   1.0000   1.0000   1.0000   1.0000   1.0000
     1.0000   1.0000   1.0000   1.0000   1.0000   1.0000   1.0000   1.0000
     1.0000   1.0000   1.0000   1.0000   1.0000   1.0000   1.0000   1.0000
     1.0000   1.0000   1.0000   1.0000   1.0000   1.0000   1.0000   1.0000
     1.0000   1.0000   1.0000   1.0000   1.0000   1.0000   1.0000   1.0000
     1.0000   1.0000   1.0000   1.0000   1.0000   1.0000   1.0000   1.0000
     1.0000   1.0000   1.0000   1.0000   1.0000   1.0000   1.0000   1.0000
     1.0000   1.0000   1.0000   1.0000   1.0000   1.0000   1.0000   1.0000
     1.0000   1.0000   1.0000   1.0000   1.0000   1.0000   1.0000   1.0000
     1.0000   1.0000   1.0000   1.0000   1.0000   1.0000   1.0000   1.0000
     1.0000   1.0000   1.0000   1.0000   1.0000   1.0000   1.0000   1.0000
     1.0000   1.0000   1.0000   1.0000   1.0000   1.0000   1.0000   1.0000
     1.0000   1.0000   1.0000   1.0000   1.0000   1.0000   1.0000   1.0000
     1.0000   1.0000   1.0000   1.0000

          k = 0.0000 0.3333 0.0000 ( 11592 PWs)   bands (ev):

   -78.9092 -78.9092 -78.9092 -78.9092 -73.7330 -73.7330 -73.7329 -73.7329
   -45.0794 -45.0794 -45.0786 -45.0784 -44.9771 -44.9771 -44.9770 -44.9770
   -44.9770 -44.9769 -44.9769 -44.9768 -40.0020 -40.0019 -40.0002 -40.0001
   -39.9757 -39.9757 -39.9756 -39.9756 -39.9756 -39.9755 -39.9755 -39.9754
   -11.7526 -11.7466 -11.7462 -11.7435 -11.7426 -11.7380 -11.7376 -11.7349
   -11.7344 -11.7341 -11.7314 -11.7281 -11.7252 -11.7218 -11.7194 -11.7170
   -11.7163 -11.7143 -11.7122 -11.7098 -11.7098 -11.7087 -11.7085 -11.7085
   -11.7062 -11.7057 -11.7045 -11.7030 -11.7019 -11.6985 -11.6970 -11.6954
   -11.6946 -11.6946 -11.6938 -11.6933 -11.6915 -11.6907 -11.6845 -11.6828
    -6.9207  -6.5819  -6.1857  -6.1793  -5.9198  -5.8869  -5.6193  -5.5715
    -5.5711  -5.5689  -5.4991  -5.4780  -5.4370  -5.3872  -5.3822  -5.3221
    -5.3022  -5.2915  -5.2735  -5.2453  -5.2319  -5.2208  -5.0405  -5.0223
     0.7753   0.7774   0.8542   1.0135   1.0135   1.2844   1.3724   1.6824
     3.7937   3.8133   4.3711   4.4516   4.4964   4.5226   4.5536   4.7193
     4.7315   4.8418   4.8637   4.9758   4.9880   5.0577   5.1317   5.1439
     5.1741   5.1879   5.2098   5.2869   5.3573   5.9403   6.6297   6.6525
     6.6900   6.7181   6.7801   6.8893   7.0765   7.1126   7.1253   7.1277
     7.1541   7.1592   7.2540   7.4258   7.6077   7.7842   7.7962   7.8193
     7.8857   7.9333   8.0868   8.0965   8.1275   8.1339   8.2158   8.2722
     8.3419   8.5474   8.9079   8.9866   9.0577   9.1105   9.2107   9.2162
     9.2705   9.3509   9.3662   9.3996   9.4608   9.4848   9.5162   9.5642
     9.6425   9.6547   9.8706   9.8904   9.9745   9.9923  10.0009  10.0288
    10.0475  10.0510  10.1003  10.1228  10.1609  10.1845  10.1861  10.1939
    10.5780  10.6227  10.6316  10.6371  10.6498  10.6542  10.9088  10.9234
    10.9238  10.9328  12.0268  12.1308

     occupation numbers 
     1.0000   1.0000   1.0000   1.0000   1.0000   1.0000   1.0000   1.0000
     1.0000   1.0000   1.0000   1.0000   1.0000   1.0000   1.0000   1.0000
     1.0000   1.0000   1.0000   1.0000   1.0000   1.0000   1.0000   1.0000
     1.0000   1.0000   1.0000   1.0000   1.0000   1.0000   1.0000   1.0000
     1.0000   1.0000   1.0000   1.0000   1.0000   1.0000   1.0000   1.0000
     1.0000   1.0000   1.0000   1.0000   1.0000   1.0000   1.0000   1.0000
     1.0000   1.0000   1.0000   1.0000   1.0000   1.0000   1.0000   1.0000
     1.0000   1.0000   1.0000   1.0000   1.0000   1.0000   1.0000   1.0000
     1.0000   1.0000   1.0000   1.0000   1.0000   1.0000   1.0000   1.0000
     1.0000   1.0000   1.0000   1.0000   1.0000   1.0000   1.0000   1.0000
     1.0000   1.0000   1.0000   1.0000   1.0000   1.0000   1.0000   1.0000
     1.0000   1.0000   1.0000   1.0000   1.0000   1.0000   1.0000   1.0000
     1.0000   1.0000   1.0000   1.0000   1.0000   1.0000   1.0000   1.0000
     1.0000   1.0000   1.0000   1.0000   1.0000   1.0000   1.0000   1.0000
     1.0000   1.0000   1.0000   1.0000   1.0000   1.0000   1.0000   1.0000
     1.0000   1.0000   1.0000   1.0000   1.0000   1.0000   1.0000   1.0000
     1.0000   1.0000   1.0000   1.0000   1.0000   1.0000   1.0000   1.0000
     1.0000   1.0000   1.0000   1.0000   1.0000   1.0000   1.0000   1.0000
     1.0000   1.0000   1.0000   1.0000   1.0000   1.0000   1.0000   1.0000
     1.0000   1.0000   1.0000   1.0000   1.0000   1.0000   1.0000   1.0000
     1.0000   1.0000   1.0000   1.0000   1.0000   1.0000   1.0000   1.0000
     1.0000   1.0000   1.0000   1.0000   1.0000   1.0000   1.0000   1.0000
     1.0000   1.0000   1.0000   1.0000   1.0000   1.0000   1.0000   1.0000
     1.0000   1.0000   1.0000   1.0000   1.0000   1.0000   1.0000   1.0000
     1.0000   1.0000   1.0000   1.0000

          k = 0.0000 0.3333 0.3333 ( 11590 PWs)   bands (ev):

   -78.9092 -78.9092 -78.9092 -78.9092 -73.7330 -73.7330 -73.7329 -73.7329
   -45.0792 -45.0792 -45.0788 -45.0788 -44.9771 -44.9770 -44.9770 -44.9769
   -44.9769 -44.9769 -44.9769 -44.9769 -40.0015 -40.0015 -40.0006 -40.0006
   -39.9757 -39.9756 -39.9756 -39.9756 -39.9755 -39.9755 -39.9755 -39.9755
   -11.7448 -11.7393 -11.7379 -11.7373 -11.7372 -11.7351 -11.7338 -11.7323
   -11.7316 -11.7290 -11.7274 -11.7266 -11.7191 -11.7191 -11.7184 -11.7174
   -11.7173 -11.7161 -11.7154 -11.7148 -11.7139 -11.7138 -11.7121 -11.7121
   -11.7060 -11.7047 -11.7047 -11.7033 -11.7027 -11.7026 -11.7022 -11.7001
   -11.6988 -11.6984 -11.6971 -11.6951 -11.6944 -11.6916 -11.6895 -11.6868
    -6.7846  -6.4521  -6.4417  -6.1324  -6.0727  -5.8188  -5.7989  -5.6061
    -5.5273  -5.4758  -5.4661  -5.4352  -5.4352  -5.4322  -5.4210  -5.3474
    -5.3127  -5.3028  -5.2413  -5.2401  -5.1538  -5.1507  -5.0699  -5.0501
     0.8958   0.9063   0.9078   0.9858   1.1511   1.1512   1.2032   1.4853
     4.1897   4.2256   4.4362   4.4847   4.5113   4.5533   4.7041   4.7461
     4.7474   4.8059   4.8218   4.8600   4.9170   4.9671   4.9720   5.0082
     5.0706   5.1376   5.1941   5.2591   5.5375   6.0260   6.2015   6.4755
     6.7747   6.8316   6.8495   6.8931   6.9122   7.0390   7.1203   7.2173
     7.2282   7.2451   7.2851   7.3741   7.3810   7.5468   7.5829   7.6120
     7.6226   7.7503   7.9467   7.9554   8.1245   8.1524   8.4106   8.6329
     8.6769   8.7048   8.7995   8.8519   8.9215   9.0044   9.0168   9.1347
     9.3517   9.4013   9.4942   9.5056   9.6988   9.7168   9.7180   9.7255
     9.7820   9.8612   9.8757   9.9318   9.9541   9.9746   9.9980  10.0157
    10.0162  10.0410  10.0673  10.0973  10.1238  10.2020  10.4270  10.4282
    10.4536  10.4602  10.5502  10.5997  10.6565  10.6769  10.7182  10.7241
    11.0469  11.0622  11.7035  11.7752

     occupation numbers 
     1.0000   1.0000   1.0000   1.0000   1.0000   1.0000   1.0000   1.0000
     1.0000   1.0000   1.0000   1.0000   1.0000   1.0000   1.0000   1.0000
     1.0000   1.0000   1.0000   1.0000   1.0000   1.0000   1.0000   1.0000
     1.0000   1.0000   1.0000   1.0000   1.0000   1.0000   1.0000   1.0000
     1.0000   1.0000   1.0000   1.0000   1.0000   1.0000   1.0000   1.0000
     1.0000   1.0000   1.0000   1.0000   1.0000   1.0000   1.0000   1.0000
     1.0000   1.0000   1.0000   1.0000   1.0000   1.0000   1.0000   1.0000
     1.0000   1.0000   1.0000   1.0000   1.0000   1.0000   1.0000   1.0000
     1.0000   1.0000   1.0000   1.0000   1.0000   1.0000   1.0000   1.0000
     1.0000   1.0000   1.0000   1.0000   1.0000   1.0000   1.0000   1.0000
     1.0000   1.0000   1.0000   1.0000   1.0000   1.0000   1.0000   1.0000
     1.0000   1.0000   1.0000   1.0000   1.0000   1.0000   1.0000   1.0000
     1.0000   1.0000   1.0000   1.0000   1.0000   1.0000   1.0000   1.0000
     1.0000   1.0000   1.0000   1.0000   1.0000   1.0000   1.0000   1.0000
     1.0000   1.0000   1.0000   1.0000   1.0000   1.0000   1.0000   1.0000
     1.0000   1.0000   1.0000   1.0000   1.0000   1.0000   1.0000   1.0000
     1.0000   1.0000   1.0000   1.0000   1.0000   1.0000   1.0000   1.0000
     1.0000   1.0000   1.0000   1.0000   1.0000   1.0000   1.0000   1.0000
     1.0000   1.0000   1.0000   1.0000   1.0000   1.0000   1.0000   1.0000
     1.0000   1.0000   1.0000   1.0000   1.0000   1.0000   1.0000   1.0000
     1.0000   1.0000   1.0000   1.0000   1.0000   1.0000   1.0000   1.0000
     1.0000   1.0000   1.0000   1.0000   1.0000   1.0000   1.0000   1.0000
     1.0000   1.0000   1.0000   1.0000   1.0000   1.0000   1.0000   1.0000
     1.0000   1.0000   1.0000   1.0000   1.0000   1.0000   1.0000   1.0000
     1.0000   1.0000   1.0000   1.0000

          k = 0.0000 0.3333 0.6667 ( 11590 PWs)   bands (ev):

   -78.9092 -78.9092 -78.9092 -78.9092 -73.7330 -73.7330 -73.7329 -73.7329
   -45.0792 -45.0792 -45.0788 -45.0788 -44.9771 -44.9770 -44.9770 -44.9769
   -44.9769 -44.9769 -44.9769 -44.9769 -40.0015 -40.0015 -40.0006 -40.0006
   -39.9757 -39.9756 -39.9756 -39.9756 -39.9755 -39.9755 -39.9755 -39.9755
   -11.7448 -11.7393 -11.7379 -11.7373 -11.7372 -11.7351 -11.7338 -11.7323
   -11.7316 -11.7290 -11.7274 -11.7266 -11.7191 -11.7191 -11.7184 -11.7174
   -11.7173 -11.7161 -11.7154 -11.7148 -11.7139 -11.7138 -11.7121 -11.7121
   -11.7060 -11.7047 -11.7047 -11.7033 -11.7027 -11.7026 -11.7022 -11.7001
   -11.6988 -11.6984 -11.6971 -11.6951 -11.6944 -11.6916 -11.6895 -11.6868
    -6.7846  -6.4521  -6.4417  -6.1324  -6.0727  -5.8188  -5.7989  -5.6061
    -5.5273  -5.4758  -5.4661  -5.4352  -5.4352  -5.4322  -5.4210  -5.3474
    -5.3127  -5.3028  -5.2413  -5.2401  -5.1538  -5.1507  -5.0699  -5.0501
     0.8958   0.9063   0.9078   0.9858   1.1511   1.1512   1.2032   1.4853
     4.1897   4.2256   4.4362   4.4847   4.5113   4.5533   4.7041   4.7461
     4.7474   4.8059   4.8218   4.8600   4.9170   4.9671   4.9720   5.0082
     5.0706   5.1376   5.1941   5.2591   5.5375   6.0260   6.2015   6.4755
     6.7747   6.8316   6.8495   6.8931   6.9122   7.0390   7.1203   7.2173
     7.2282   7.2451   7.2851   7.3741   7.3810   7.5468   7.5829   7.6120
     7.6226   7.7503   7.9467   7.9554   8.1245   8.1524   8.4106   8.6329
     8.6769   8.7048   8.7995   8.8519   8.9215   9.0044   9.0168   9.1347
     9.3517   9.4013   9.4942   9.5056   9.6988   9.7168   9.7180   9.7255
     9.7820   9.8612   9.8757   9.9318   9.9541   9.9746   9.9980  10.0157
    10.0162  10.0410  10.0673  10.0973  10.1238  10.2020  10.4270  10.4282
    10.4536  10.4602  10.5502  10.5997  10.6565  10.6769  10.7182  10.7241
    11.0469  11.0622  11.7035  11.7752

     occupation numbers 
     1.0000   1.0000   1.0000   1.0000   1.0000   1.0000   1.0000   1.0000
     1.0000   1.0000   1.0000   1.0000   1.0000   1.0000   1.0000   1.0000
     1.0000   1.0000   1.0000   1.0000   1.0000   1.0000   1.0000   1.0000
     1.0000   1.0000   1.0000   1.0000   1.0000   1.0000   1.0000   1.0000
     1.0000   1.0000   1.0000   1.0000   1.0000   1.0000   1.0000   1.0000
     1.0000   1.0000   1.0000   1.0000   1.0000   1.0000   1.0000   1.0000
     1.0000   1.0000   1.0000   1.0000   1.0000   1.0000   1.0000   1.0000
     1.0000   1.0000   1.0000   1.0000   1.0000   1.0000   1.0000   1.0000
     1.0000   1.0000   1.0000   1.0000   1.0000   1.0000   1.0000   1.0000
     1.0000   1.0000   1.0000   1.0000   1.0000   1.0000   1.0000   1.0000
     1.0000   1.0000   1.0000   1.0000   1.0000   1.0000   1.0000   1.0000
     1.0000   1.0000   1.0000   1.0000   1.0000   1.0000   1.0000   1.0000
     1.0000   1.0000   1.0000   1.0000   1.0000   1.0000   1.0000   1.0000
     1.0000   1.0000   1.0000   1.0000   1.0000   1.0000   1.0000   1.0000
     1.0000   1.0000   1.0000   1.0000   1.0000   1.0000   1.0000   1.0000
     1.0000   1.0000   1.0000   1.0000   1.0000   1.0000   1.0000   1.0000
     1.0000   1.0000   1.0000   1.0000   1.0000   1.0000   1.0000   1.0000
     1.0000   1.0000   1.0000   1.0000   1.0000   1.0000   1.0000   1.0000
     1.0000   1.0000   1.0000   1.0000   1.0000   1.0000   1.0000   1.0000
     1.0000   1.0000   1.0000   1.0000   1.0000   1.0000   1.0000   1.0000
     1.0000   1.0000   1.0000   1.0000   1.0000   1.0000   1.0000   1.0000
     1.0000   1.0000   1.0000   1.0000   1.0000   1.0000   1.0000   1.0000
     1.0000   1.0000   1.0000   1.0000   1.0000   1.0000   1.0000   1.0000
     1.0000   1.0000   1.0000   1.0000   1.0000   1.0000   1.0000   1.0000
     1.0000   1.0000   1.0000   1.0000

          k = 0.0000 0.3333 1.0000 ( 11592 PWs)   bands (ev):

   -78.9092 -78.9092 -78.9092 -78.9092 -73.7330 -73.7330 -73.7329 -73.7329
   -45.0794 -45.0794 -45.0786 -45.0784 -44.9771 -44.9771 -44.9770 -44.9770
   -44.9770 -44.9769 -44.9769 -44.9768 -40.0020 -40.0019 -40.0002 -40.0001
   -39.9757 -39.9757 -39.9756 -39.9756 -39.9756 -39.9755 -39.9755 -39.9754
   -11.7526 -11.7466 -11.7462 -11.7435 -11.7426 -11.7380 -11.7376 -11.7349
   -11.7344 -11.7341 -11.7314 -11.7281 -11.7252 -11.7218 -11.7194 -11.7170
   -11.7163 -11.7143 -11.7122 -11.7098 -11.7098 -11.7087 -11.7085 -11.7085
   -11.7062 -11.7057 -11.7045 -11.7030 -11.7019 -11.6985 -11.6970 -11.6954
   -11.6946 -11.6946 -11.6938 -11.6933 -11.6915 -11.6907 -11.6845 -11.6828
    -6.9207  -6.5819  -6.1857  -6.1793  -5.9198  -5.8869  -5.6193  -5.5715
    -5.5711  -5.5689  -5.4991  -5.4780  -5.4370  -5.3872  -5.3822  -5.3221
    -5.3022  -5.2915  -5.2735  -5.2453  -5.2319  -5.2208  -5.0405  -5.0223
     0.7753   0.7774   0.8542   1.0135   1.0135   1.2844   1.3724   1.6824
     3.7937   3.8133   4.3711   4.4516   4.4964   4.5226   4.5536   4.7193
     4.7315   4.8418   4.8637   4.9758   4.9880   5.0577   5.1317   5.1439
     5.1741   5.1879   5.2098   5.2869   5.3573   5.9403   6.6297   6.6525
     6.6900   6.7181   6.7801   6.8893   7.0765   7.1126   7.1253   7.1277
     7.1541   7.1592   7.2540   7.4258   7.6077   7.7842   7.7962   7.8193
     7.8857   7.9333   8.0868   8.0965   8.1275   8.1339   8.2158   8.2722
     8.3419   8.5474   8.9079   8.9866   9.0577   9.1105   9.2107   9.2162
     9.2705   9.3509   9.3662   9.3996   9.4608   9.4848   9.5162   9.5642
     9.6425   9.6547   9.8706   9.8904   9.9745   9.9923  10.0009  10.0288
    10.0475  10.0510  10.1003  10.1228  10.1609  10.1845  10.1861  10.1939
    10.5780  10.6227  10.6316  10.6371  10.6498  10.6542  10.9088  10.9234
    10.9238  10.9328  12.0268  12.1308

     occupation numbers 
     1.0000   1.0000   1.0000   1.0000   1.0000   1.0000   1.0000   1.0000
     1.0000   1.0000   1.0000   1.0000   1.0000   1.0000   1.0000   1.0000
     1.0000   1.0000   1.0000   1.0000   1.0000   1.0000   1.0000   1.0000
     1.0000   1.0000   1.0000   1.0000   1.0000   1.0000   1.0000   1.0000
     1.0000   1.0000   1.0000   1.0000   1.0000   1.0000   1.0000   1.0000
     1.0000   1.0000   1.0000   1.0000   1.0000   1.0000   1.0000   1.0000
     1.0000   1.0000   1.0000   1.0000   1.0000   1.0000   1.0000   1.0000
     1.0000   1.0000   1.0000   1.0000   1.0000   1.0000   1.0000   1.0000
     1.0000   1.0000   1.0000   1.0000   1.0000   1.0000   1.0000   1.0000
     1.0000   1.0000   1.0000   1.0000   1.0000   1.0000   1.0000   1.0000
     1.0000   1.0000   1.0000   1.0000   1.0000   1.0000   1.0000   1.0000
     1.0000   1.0000   1.0000   1.0000   1.0000   1.0000   1.0000   1.0000
     1.0000   1.0000   1.0000   1.0000   1.0000   1.0000   1.0000   1.0000
     1.0000   1.0000   1.0000   1.0000   1.0000   1.0000   1.0000   1.0000
     1.0000   1.0000   1.0000   1.0000   1.0000   1.0000   1.0000   1.0000
     1.0000   1.0000   1.0000   1.0000   1.0000   1.0000   1.0000   1.0000
     1.0000   1.0000   1.0000   1.0000   1.0000   1.0000   1.0000   1.0000
     1.0000   1.0000   1.0000   1.0000   1.0000   1.0000   1.0000   1.0000
     1.0000   1.0000   1.0000   1.0000   1.0000   1.0000   1.0000   1.0000
     1.0000   1.0000   1.0000   1.0000   1.0000   1.0000   1.0000   1.0000
     1.0000   1.0000   1.0000   1.0000   1.0000   1.0000   1.0000   1.0000
     1.0000   1.0000   1.0000   1.0000   1.0000   1.0000   1.0000   1.0000
     1.0000   1.0000   1.0000   1.0000   1.0000   1.0000   1.0000   1.0000
     1.0000   1.0000   1.0000   1.0000   1.0000   1.0000   1.0000   1.0000
     1.0000   1.0000   1.0000   1.0000

          k = 0.3333 0.0000 0.0000 ( 11592 PWs)   bands (ev):

   -78.9092 -78.9092 -78.9092 -78.9092 -73.7330 -73.7330 -73.7329 -73.7329
   -45.0794 -45.0794 -45.0786 -45.0784 -44.9771 -44.9771 -44.9770 -44.9770
   -44.9770 -44.9769 -44.9769 -44.9768 -40.0020 -40.0019 -40.0002 -40.0001
   -39.9757 -39.9757 -39.9756 -39.9756 -39.9756 -39.9755 -39.9755 -39.9754
   -11.7526 -11.7466 -11.7462 -11.7435 -11.7426 -11.7380 -11.7376 -11.7349
   -11.7344 -11.7341 -11.7314 -11.7281 -11.7252 -11.7218 -11.7194 -11.7170
   -11.7163 -11.7143 -11.7122 -11.7098 -11.7098 -11.7087 -11.7085 -11.7085
   -11.7062 -11.7057 -11.7045 -11.7030 -11.7019 -11.6985 -11.6970 -11.6954
   -11.6946 -11.6946 -11.6938 -11.6933 -11.6915 -11.6907 -11.6845 -11.6828
    -6.9207  -6.5819  -6.1857  -6.1793  -5.9198  -5.8869  -5.6193  -5.5715
    -5.5711  -5.5689  -5.4991  -5.4780  -5.4370  -5.3872  -5.3822  -5.3221
    -5.3022  -5.2915  -5.2735  -5.2453  -5.2319  -5.2208  -5.0405  -5.0223
     0.7753   0.7774   0.8542   1.0135   1.0135   1.2844   1.3724   1.6824
     3.7937   3.8133   4.3711   4.4516   4.4964   4.5226   4.5536   4.7193
     4.7315   4.8418   4.8637   4.9758   4.9880   5.0577   5.1317   5.1439
     5.1741   5.1879   5.2098   5.2869   5.3573   5.9403   6.6297   6.6525
     6.6900   6.7181   6.7801   6.8893   7.0765   7.1126   7.1253   7.1277
     7.1541   7.1592   7.2540   7.4258   7.6077   7.7842   7.7962   7.8193
     7.8857   7.9333   8.0868   8.0965   8.1275   8.1339   8.2158   8.2722
     8.3419   8.5474   8.9079   8.9866   9.0577   9.1105   9.2107   9.2162
     9.2705   9.3509   9.3662   9.3996   9.4608   9.4848   9.5162   9.5642
     9.6425   9.6547   9.8706   9.8904   9.9745   9.9923  10.0009  10.0288
    10.0475  10.0510  10.1003  10.1228  10.1609  10.1845  10.1861  10.1939
    10.5780  10.6227  10.6316  10.6371  10.6498  10.6542  10.9088  10.9234
    10.9238  10.9328  12.0268  12.1308

     occupation numbers 
     1.0000   1.0000   1.0000   1.0000   1.0000   1.0000   1.0000   1.0000
     1.0000   1.0000   1.0000   1.0000   1.0000   1.0000   1.0000   1.0000
     1.0000   1.0000   1.0000   1.0000   1.0000   1.0000   1.0000   1.0000
     1.0000   1.0000   1.0000   1.0000   1.0000   1.0000   1.0000   1.0000
     1.0000   1.0000   1.0000   1.0000   1.0000   1.0000   1.0000   1.0000
     1.0000   1.0000   1.0000   1.0000   1.0000   1.0000   1.0000   1.0000
     1.0000   1.0000   1.0000   1.0000   1.0000   1.0000   1.0000   1.0000
     1.0000   1.0000   1.0000   1.0000   1.0000   1.0000   1.0000   1.0000
     1.0000   1.0000   1.0000   1.0000   1.0000   1.0000   1.0000   1.0000
     1.0000   1.0000   1.0000   1.0000   1.0000   1.0000   1.0000   1.0000
     1.0000   1.0000   1.0000   1.0000   1.0000   1.0000   1.0000   1.0000
     1.0000   1.0000   1.0000   1.0000   1.0000   1.0000   1.0000   1.0000
     1.0000   1.0000   1.0000   1.0000   1.0000   1.0000   1.0000   1.0000
     1.0000   1.0000   1.0000   1.0000   1.0000   1.0000   1.0000   1.0000
     1.0000   1.0000   1.0000   1.0000   1.0000   1.0000   1.0000   1.0000
     1.0000   1.0000   1.0000   1.0000   1.0000   1.0000   1.0000   1.0000
     1.0000   1.0000   1.0000   1.0000   1.0000   1.0000   1.0000   1.0000
     1.0000   1.0000   1.0000   1.0000   1.0000   1.0000   1.0000   1.0000
     1.0000   1.0000   1.0000   1.0000   1.0000   1.0000   1.0000   1.0000
     1.0000   1.0000   1.0000   1.0000   1.0000   1.0000   1.0000   1.0000
     1.0000   1.0000   1.0000   1.0000   1.0000   1.0000   1.0000   1.0000
     1.0000   1.0000   1.0000   1.0000   1.0000   1.0000   1.0000   1.0000
     1.0000   1.0000   1.0000   1.0000   1.0000   1.0000   1.0000   1.0000
     1.0000   1.0000   1.0000   1.0000   1.0000   1.0000   1.0000   1.0000
     1.0000   1.0000   1.0000   1.0000

          k = 0.3333 0.0000 0.3333 ( 11590 PWs)   bands (ev):

   -78.9092 -78.9092 -78.9092 -78.9092 -73.7330 -73.7330 -73.7329 -73.7329
   -45.0792 -45.0792 -45.0788 -45.0788 -44.9771 -44.9770 -44.9770 -44.9769
   -44.9769 -44.9769 -44.9769 -44.9769 -40.0015 -40.0015 -40.0006 -40.0006
   -39.9757 -39.9756 -39.9756 -39.9756 -39.9755 -39.9755 -39.9755 -39.9755
   -11.7448 -11.7393 -11.7379 -11.7373 -11.7372 -11.7351 -11.7338 -11.7323
   -11.7316 -11.7290 -11.7274 -11.7266 -11.7191 -11.7191 -11.7184 -11.7174
   -11.7173 -11.7161 -11.7154 -11.7148 -11.7139 -11.7138 -11.7121 -11.7121
   -11.7060 -11.7047 -11.7047 -11.7033 -11.7027 -11.7026 -11.7022 -11.7001
   -11.6988 -11.6984 -11.6971 -11.6951 -11.6944 -11.6916 -11.6895 -11.6868
    -6.7846  -6.4521  -6.4417  -6.1324  -6.0727  -5.8188  -5.7989  -5.6061
    -5.5273  -5.4758  -5.4661  -5.4352  -5.4352  -5.4322  -5.4210  -5.3474
    -5.3127  -5.3028  -5.2413  -5.2401  -5.1538  -5.1507  -5.0699  -5.0501
     0.8958   0.9063   0.9078   0.9858   1.1511   1.1512   1.2032   1.4853
     4.1897   4.2256   4.4362   4.4847   4.5113   4.5533   4.7041   4.7461
     4.7474   4.8059   4.8218   4.8600   4.9170   4.9671   4.9720   5.0082
     5.0706   5.1376   5.1941   5.2591   5.5375   6.0260   6.2015   6.4755
     6.7747   6.8316   6.8495   6.8931   6.9122   7.0390   7.1203   7.2173
     7.2282   7.2451   7.2851   7.3741   7.3810   7.5468   7.5829   7.6120
     7.6226   7.7503   7.9467   7.9554   8.1245   8.1524   8.4106   8.6329
     8.6769   8.7048   8.7995   8.8519   8.9215   9.0044   9.0168   9.1347
     9.3517   9.4013   9.4942   9.5056   9.6988   9.7168   9.7180   9.7255
     9.7820   9.8612   9.8757   9.9318   9.9541   9.9746   9.9980  10.0157
    10.0162  10.0410  10.0673  10.0973  10.1238  10.2020  10.4270  10.4282
    10.4536  10.4602  10.5502  10.5997  10.6565  10.6769  10.7182  10.7241
    11.0469  11.0622  11.7035  11.7752

     occupation numbers 
     1.0000   1.0000   1.0000   1.0000   1.0000   1.0000   1.0000   1.0000
     1.0000   1.0000   1.0000   1.0000   1.0000   1.0000   1.0000   1.0000
     1.0000   1.0000   1.0000   1.0000   1.0000   1.0000   1.0000   1.0000
     1.0000   1.0000   1.0000   1.0000   1.0000   1.0000   1.0000   1.0000
     1.0000   1.0000   1.0000   1.0000   1.0000   1.0000   1.0000   1.0000
     1.0000   1.0000   1.0000   1.0000   1.0000   1.0000   1.0000   1.0000
     1.0000   1.0000   1.0000   1.0000   1.0000   1.0000   1.0000   1.0000
     1.0000   1.0000   1.0000   1.0000   1.0000   1.0000   1.0000   1.0000
     1.0000   1.0000   1.0000   1.0000   1.0000   1.0000   1.0000   1.0000
     1.0000   1.0000   1.0000   1.0000   1.0000   1.0000   1.0000   1.0000
     1.0000   1.0000   1.0000   1.0000   1.0000   1.0000   1.0000   1.0000
     1.0000   1.0000   1.0000   1.0000   1.0000   1.0000   1.0000   1.0000
     1.0000   1.0000   1.0000   1.0000   1.0000   1.0000   1.0000   1.0000
     1.0000   1.0000   1.0000   1.0000   1.0000   1.0000   1.0000   1.0000
     1.0000   1.0000   1.0000   1.0000   1.0000   1.0000   1.0000   1.0000
     1.0000   1.0000   1.0000   1.0000   1.0000   1.0000   1.0000   1.0000
     1.0000   1.0000   1.0000   1.0000   1.0000   1.0000   1.0000   1.0000
     1.0000   1.0000   1.0000   1.0000   1.0000   1.0000   1.0000   1.0000
     1.0000   1.0000   1.0000   1.0000   1.0000   1.0000   1.0000   1.0000
     1.0000   1.0000   1.0000   1.0000   1.0000   1.0000   1.0000   1.0000
     1.0000   1.0000   1.0000   1.0000   1.0000   1.0000   1.0000   1.0000
     1.0000   1.0000   1.0000   1.0000   1.0000   1.0000   1.0000   1.0000
     1.0000   1.0000   1.0000   1.0000   1.0000   1.0000   1.0000   1.0000
     1.0000   1.0000   1.0000   1.0000   1.0000   1.0000   1.0000   1.0000
     1.0000   1.0000   1.0000   1.0000

          k = 0.3333 0.0000 0.6667 ( 11590 PWs)   bands (ev):

   -78.9092 -78.9092 -78.9092 -78.9092 -73.7330 -73.7330 -73.7329 -73.7329
   -45.0792 -45.0792 -45.0788 -45.0788 -44.9771 -44.9770 -44.9770 -44.9769
   -44.9769 -44.9769 -44.9769 -44.9769 -40.0015 -40.0015 -40.0006 -40.0006
   -39.9757 -39.9756 -39.9756 -39.9756 -39.9755 -39.9755 -39.9755 -39.9755
   -11.7448 -11.7393 -11.7379 -11.7373 -11.7372 -11.7351 -11.7338 -11.7323
   -11.7316 -11.7290 -11.7274 -11.7266 -11.7191 -11.7191 -11.7184 -11.7174
   -11.7173 -11.7161 -11.7154 -11.7148 -11.7139 -11.7138 -11.7121 -11.7121
   -11.7060 -11.7047 -11.7047 -11.7033 -11.7027 -11.7026 -11.7022 -11.7001
   -11.6988 -11.6984 -11.6971 -11.6951 -11.6944 -11.6916 -11.6895 -11.6868
    -6.7846  -6.4521  -6.4417  -6.1324  -6.0727  -5.8188  -5.7989  -5.6061
    -5.5273  -5.4758  -5.4661  -5.4352  -5.4352  -5.4322  -5.4210  -5.3474
    -5.3127  -5.3028  -5.2413  -5.2401  -5.1538  -5.1507  -5.0699  -5.0501
     0.8958   0.9063   0.9078   0.9858   1.1511   1.1512   1.2032   1.4853
     4.1897   4.2256   4.4362   4.4847   4.5113   4.5533   4.7041   4.7461
     4.7474   4.8059   4.8218   4.8600   4.9170   4.9671   4.9720   5.0082
     5.0706   5.1376   5.1941   5.2591   5.5375   6.0260   6.2015   6.4755
     6.7747   6.8316   6.8495   6.8931   6.9122   7.0390   7.1203   7.2173
     7.2282   7.2451   7.2851   7.3741   7.3810   7.5468   7.5829   7.6120
     7.6226   7.7503   7.9467   7.9554   8.1245   8.1524   8.4106   8.6329
     8.6769   8.7048   8.7995   8.8519   8.9215   9.0044   9.0168   9.1347
     9.3517   9.4013   9.4942   9.5056   9.6988   9.7168   9.7180   9.7255
     9.7820   9.8612   9.8757   9.9318   9.9541   9.9746   9.9980  10.0157
    10.0162  10.0410  10.0673  10.0973  10.1238  10.2020  10.4270  10.4282
    10.4536  10.4602  10.5502  10.5997  10.6565  10.6769  10.7182  10.7241
    11.0469  11.0622  11.7035  11.7752

     occupation numbers 
     1.0000   1.0000   1.0000   1.0000   1.0000   1.0000   1.0000   1.0000
     1.0000   1.0000   1.0000   1.0000   1.0000   1.0000   1.0000   1.0000
     1.0000   1.0000   1.0000   1.0000   1.0000   1.0000   1.0000   1.0000
     1.0000   1.0000   1.0000   1.0000   1.0000   1.0000   1.0000   1.0000
     1.0000   1.0000   1.0000   1.0000   1.0000   1.0000   1.0000   1.0000
     1.0000   1.0000   1.0000   1.0000   1.0000   1.0000   1.0000   1.0000
     1.0000   1.0000   1.0000   1.0000   1.0000   1.0000   1.0000   1.0000
     1.0000   1.0000   1.0000   1.0000   1.0000   1.0000   1.0000   1.0000
     1.0000   1.0000   1.0000   1.0000   1.0000   1.0000   1.0000   1.0000
     1.0000   1.0000   1.0000   1.0000   1.0000   1.0000   1.0000   1.0000
     1.0000   1.0000   1.0000   1.0000   1.0000   1.0000   1.0000   1.0000
     1.0000   1.0000   1.0000   1.0000   1.0000   1.0000   1.0000   1.0000
     1.0000   1.0000   1.0000   1.0000   1.0000   1.0000   1.0000   1.0000
     1.0000   1.0000   1.0000   1.0000   1.0000   1.0000   1.0000   1.0000
     1.0000   1.0000   1.0000   1.0000   1.0000   1.0000   1.0000   1.0000
     1.0000   1.0000   1.0000   1.0000   1.0000   1.0000   1.0000   1.0000
     1.0000   1.0000   1.0000   1.0000   1.0000   1.0000   1.0000   1.0000
     1.0000   1.0000   1.0000   1.0000   1.0000   1.0000   1.0000   1.0000
     1.0000   1.0000   1.0000   1.0000   1.0000   1.0000   1.0000   1.0000
     1.0000   1.0000   1.0000   1.0000   1.0000   1.0000   1.0000   1.0000
     1.0000   1.0000   1.0000   1.0000   1.0000   1.0000   1.0000   1.0000
     1.0000   1.0000   1.0000   1.0000   1.0000   1.0000   1.0000   1.0000
     1.0000   1.0000   1.0000   1.0000   1.0000   1.0000   1.0000   1.0000
     1.0000   1.0000   1.0000   1.0000   1.0000   1.0000   1.0000   1.0000
     1.0000   1.0000   1.0000   1.0000

          k = 0.3333 0.0000 1.0000 ( 11592 PWs)   bands (ev):

   -78.9092 -78.9092 -78.9092 -78.9092 -73.7330 -73.7330 -73.7329 -73.7329
   -45.0794 -45.0794 -45.0786 -45.0784 -44.9771 -44.9771 -44.9770 -44.9770
   -44.9770 -44.9769 -44.9769 -44.9768 -40.0020 -40.0019 -40.0002 -40.0001
   -39.9757 -39.9757 -39.9756 -39.9756 -39.9756 -39.9755 -39.9755 -39.9754
   -11.7526 -11.7466 -11.7462 -11.7435 -11.7426 -11.7380 -11.7376 -11.7349
   -11.7344 -11.7341 -11.7314 -11.7281 -11.7252 -11.7218 -11.7194 -11.7170
   -11.7163 -11.7143 -11.7122 -11.7098 -11.7098 -11.7087 -11.7085 -11.7085
   -11.7062 -11.7057 -11.7045 -11.7030 -11.7019 -11.6985 -11.6970 -11.6954
   -11.6946 -11.6946 -11.6938 -11.6933 -11.6915 -11.6907 -11.6845 -11.6828
    -6.9207  -6.5819  -6.1857  -6.1793  -5.9198  -5.8869  -5.6193  -5.5715
    -5.5711  -5.5689  -5.4991  -5.4780  -5.4370  -5.3872  -5.3822  -5.3221
    -5.3022  -5.2915  -5.2735  -5.2453  -5.2319  -5.2208  -5.0405  -5.0223
     0.7753   0.7774   0.8542   1.0135   1.0135   1.2844   1.3724   1.6824
     3.7937   3.8133   4.3711   4.4516   4.4964   4.5226   4.5536   4.7193
     4.7315   4.8418   4.8637   4.9758   4.9880   5.0577   5.1317   5.1439
     5.1741   5.1879   5.2098   5.2869   5.3573   5.9403   6.6297   6.6525
     6.6900   6.7181   6.7801   6.8893   7.0765   7.1126   7.1253   7.1277
     7.1541   7.1592   7.2540   7.4258   7.6077   7.7842   7.7962   7.8193
     7.8857   7.9333   8.0868   8.0965   8.1275   8.1339   8.2158   8.2722
     8.3419   8.5474   8.9079   8.9866   9.0577   9.1105   9.2107   9.2162
     9.2705   9.3509   9.3662   9.3996   9.4608   9.4848   9.5162   9.5642
     9.6425   9.6547   9.8706   9.8904   9.9745   9.9923  10.0009  10.0288
    10.0475  10.0510  10.1003  10.1228  10.1609  10.1845  10.1861  10.1939
    10.5780  10.6227  10.6316  10.6371  10.6498  10.6542  10.9088  10.9234
    10.9238  10.9328  12.0268  12.1308

     occupation numbers 
     1.0000   1.0000   1.0000   1.0000   1.0000   1.0000   1.0000   1.0000
     1.0000   1.0000   1.0000   1.0000   1.0000   1.0000   1.0000   1.0000
     1.0000   1.0000   1.0000   1.0000   1.0000   1.0000   1.0000   1.0000
     1.0000   1.0000   1.0000   1.0000   1.0000   1.0000   1.0000   1.0000
     1.0000   1.0000   1.0000   1.0000   1.0000   1.0000   1.0000   1.0000
     1.0000   1.0000   1.0000   1.0000   1.0000   1.0000   1.0000   1.0000
     1.0000   1.0000   1.0000   1.0000   1.0000   1.0000   1.0000   1.0000
     1.0000   1.0000   1.0000   1.0000   1.0000   1.0000   1.0000   1.0000
     1.0000   1.0000   1.0000   1.0000   1.0000   1.0000   1.0000   1.0000
     1.0000   1.0000   1.0000   1.0000   1.0000   1.0000   1.0000   1.0000
     1.0000   1.0000   1.0000   1.0000   1.0000   1.0000   1.0000   1.0000
     1.0000   1.0000   1.0000   1.0000   1.0000   1.0000   1.0000   1.0000
     1.0000   1.0000   1.0000   1.0000   1.0000   1.0000   1.0000   1.0000
     1.0000   1.0000   1.0000   1.0000   1.0000   1.0000   1.0000   1.0000
     1.0000   1.0000   1.0000   1.0000   1.0000   1.0000   1.0000   1.0000
     1.0000   1.0000   1.0000   1.0000   1.0000   1.0000   1.0000   1.0000
     1.0000   1.0000   1.0000   1.0000   1.0000   1.0000   1.0000   1.0000
     1.0000   1.0000   1.0000   1.0000   1.0000   1.0000   1.0000   1.0000
     1.0000   1.0000   1.0000   1.0000   1.0000   1.0000   1.0000   1.0000
     1.0000   1.0000   1.0000   1.0000   1.0000   1.0000   1.0000   1.0000
     1.0000   1.0000   1.0000   1.0000   1.0000   1.0000   1.0000   1.0000
     1.0000   1.0000   1.0000   1.0000   1.0000   1.0000   1.0000   1.0000
     1.0000   1.0000   1.0000   1.0000   1.0000   1.0000   1.0000   1.0000
     1.0000   1.0000   1.0000   1.0000   1.0000   1.0000   1.0000   1.0000
     1.0000   1.0000   1.0000   1.0000

          k = 0.3333 0.3333 0.0000 ( 11590 PWs)   bands (ev):

   -78.9092 -78.9092 -78.9092 -78.9092 -73.7330 -73.7330 -73.7329 -73.7329
   -45.0794 -45.0794 -45.0785 -45.0784 -44.9771 -44.9771 -44.9770 -44.9769
   -44.9769 -44.9769 -44.9769 -44.9769 -40.0020 -40.0019 -40.0002 -40.0001
   -39.9757 -39.9757 -39.9756 -39.9756 -39.9755 -39.9755 -39.9755 -39.9755
   -11.7472 -11.7407 -11.7401 -11.7374 -11.7371 -11.7355 -11.7352 -11.7344
   -11.7322 -11.7262 -11.7262 -11.7242 -11.7196 -11.7183 -11.7175 -11.7171
   -11.7160 -11.7159 -11.7155 -11.7150 -11.7110 -11.7108 -11.7095 -11.7094
   -11.7061 -11.7060 -11.7059 -11.7047 -11.7047 -11.7005 -11.6999 -11.6988
   -11.6984 -11.6983 -11.6971 -11.6970 -11.6957 -11.6927 -11.6925 -11.6896
    -6.7893  -6.5139  -6.3779  -6.1335  -6.0658  -5.8117  -5.7598  -5.5919
    -5.5638  -5.5463  -5.4974  -5.4708  -5.4586  -5.4183  -5.3529  -5.3216
    -5.2840  -5.2831  -5.2603  -5.2405  -5.2074  -5.1719  -5.0238  -5.0158
     0.8681   0.8961   0.9450   0.9767   1.1277   1.1752   1.2131   1.4864
     3.8015   3.8112   4.2741   4.5190   4.6172   4.6328   4.6382   4.7346
     4.8073   4.8265   4.9288   5.0439   5.1007   5.1195   5.1225   5.1549
     5.1935   5.2171   5.2176   5.3417   5.5698   6.0690   6.3922   6.5886
     6.6064   6.6865   6.7876   6.7969   6.8011   6.8745   6.9566   6.9660
     6.9929   7.1059   7.5920   7.6454   7.6603   7.6779   7.7531   7.7797
     7.8582   7.9177   7.9801   8.0441   8.0518   8.0595   8.4053   8.4481
     8.4490   8.5136   8.7291   8.7323   8.8992   8.9672   9.0701   9.0915
     9.1843   9.1947   9.2545   9.2737   9.3463   9.4440   9.6472   9.7443
     9.7852   9.8429   9.8641   9.8778   9.8875   9.8920   9.9920   9.9937
    10.0144  10.0711  10.0783  10.1437  10.1502  10.1517  10.1927  10.3822
    10.4281  10.4648  10.5460  10.6426  10.6778  10.7229  11.2074  11.3126
    11.3667  11.3764  12.2059  12.2646

     occupation numbers 
     1.0000   1.0000   1.0000   1.0000   1.0000   1.0000   1.0000   1.0000
     1.0000   1.0000   1.0000   1.0000   1.0000   1.0000   1.0000   1.0000
     1.0000   1.0000   1.0000   1.0000   1.0000   1.0000   1.0000   1.0000
     1.0000   1.0000   1.0000   1.0000   1.0000   1.0000   1.0000   1.0000
     1.0000   1.0000   1.0000   1.0000   1.0000   1.0000   1.0000   1.0000
     1.0000   1.0000   1.0000   1.0000   1.0000   1.0000   1.0000   1.0000
     1.0000   1.0000   1.0000   1.0000   1.0000   1.0000   1.0000   1.0000
     1.0000   1.0000   1.0000   1.0000   1.0000   1.0000   1.0000   1.0000
     1.0000   1.0000   1.0000   1.0000   1.0000   1.0000   1.0000   1.0000
     1.0000   1.0000   1.0000   1.0000   1.0000   1.0000   1.0000   1.0000
     1.0000   1.0000   1.0000   1.0000   1.0000   1.0000   1.0000   1.0000
     1.0000   1.0000   1.0000   1.0000   1.0000   1.0000   1.0000   1.0000
     1.0000   1.0000   1.0000   1.0000   1.0000   1.0000   1.0000   1.0000
     1.0000   1.0000   1.0000   1.0000   1.0000   1.0000   1.0000   1.0000
     1.0000   1.0000   1.0000   1.0000   1.0000   1.0000   1.0000   1.0000
     1.0000   1.0000   1.0000   1.0000   1.0000   1.0000   1.0000   1.0000
     1.0000   1.0000   1.0000   1.0000   1.0000   1.0000   1.0000   1.0000
     1.0000   1.0000   1.0000   1.0000   1.0000   1.0000   1.0000   1.0000
     1.0000   1.0000   1.0000   1.0000   1.0000   1.0000   1.0000   1.0000
     1.0000   1.0000   1.0000   1.0000   1.0000   1.0000   1.0000   1.0000
     1.0000   1.0000   1.0000   1.0000   1.0000   1.0000   1.0000   1.0000
     1.0000   1.0000   1.0000   1.0000   1.0000   1.0000   1.0000   1.0000
     1.0000   1.0000   1.0000   1.0000   1.0000   1.0000   1.0000   1.0000
     1.0000   1.0000   1.0000   1.0000   1.0000   1.0000   1.0000   1.0000
     1.0000   1.0000   1.0000   1.0000

          k = 0.3333 0.3333 0.3333 ( 11626 PWs)   bands (ev):

   -78.9092 -78.9092 -78.9092 -78.9092 -73.7330 -73.7330 -73.7329 -73.7329
[...]
    -5.4758  -5.4740  -5.4738  -5.4524  -5.4326  -5.3925  -5.3799  -5.3440
    -5.2649  -5.2281  -5.2255  -5.1915  -5.1583  -5.1579  -5.0553  -5.0466
     0.9480   0.9724   0.9957   1.0796   1.0887   1.1027   1.1422   1.3473
     4.2059   4.2253   4.4637   4.6069   4.6408   4.6451   4.6612   4.7538
     4.8023   4.8297   4.8714   4.9193   4.9222   4.9531   5.0256   5.0649
     5.0660   5.0780   5.1529   5.2028   5.7449   6.1448   6.3130   6.5255
     6.5422   6.7195   6.7838   6.8003   6.8625   6.9094   7.0161   7.0183
     7.1493   7.1688   7.2350   7.3181   7.4161   7.4274   7.4679   7.5519
     7.7523   7.7830   7.8041   7.9732   7.9918   8.1122   8.3223   8.4560
     8.5087   8.5632   8.6941   8.7746   8.8263   9.1782   9.2393   9.3113
     9.4642   9.4698   9.5127   9.5589   9.6567   9.6809   9.6843   9.7593
     9.8229   9.8436   9.8939   9.9265   9.9845  10.0068  10.0100  10.0116
    10.0304  10.0637  10.1215  10.1348  10.1560  10.1734  10.3464  10.3507
    10.4670  10.4868  10.5085  10.5899  10.7945  10.8539  11.2510  11.3412
    11.3423  11.3749  11.8306  11.8635

     occupation numbers 
     1.0000   1.0000   1.0000   1.0000   1.0000   1.0000   1.0000   1.0000
     1.0000   1.0000   1.0000   1.0000   1.0000   1.0000   1.0000   1.0000
     1.0000   1.0000   1.0000   1.0000   1.0000   1.0000   1.0000   1.0000
     1.0000   1.0000   1.0000   1.0000   1.0000   1.0000   1.0000   1.0000
     1.0000   1.0000   1.0000   1.0000   1.0000   1.0000   1.0000   1.0000
     1.0000   1.0000   1.0000   1.0000   1.0000   1.0000   1.0000   1.0000
     1.0000   1.0000   1.0000   1.0000   1.0000   1.0000   1.0000   1.0000
     1.0000   1.0000   1.0000   1.0000   1.0000   1.0000   1.0000   1.0000
     1.0000   1.0000   1.0000   1.0000   1.0000   1.0000   1.0000   1.0000
     1.0000   1.0000   1.0000   1.0000   1.0000   1.0000   1.0000   1.0000
     1.0000   1.0000   1.0000   1.0000   1.0000   1.0000   1.0000   1.0000
     1.0000   1.0000   1.0000   1.0000   1.0000   1.0000   1.0000   1.0000
     1.0000   1.0000   1.0000   1.0000   1.0000   1.0000   1.0000   1.0000
     1.0000   1.0000   1.0000   1.0000   1.0000   1.0000   1.0000   1.0000
     1.0000   1.0000   1.0000   1.0000   1.0000   1.0000   1.0000   1.0000
     1.0000   1.0000   1.0000   1.0000   1.0000   1.0000   1.0000   1.0000
     1.0000   1.0000   1.0000   1.0000   1.0000   1.0000   1.0000   1.0000
     1.0000   1.0000   1.0000   1.0000   1.0000   1.0000   1.0000   1.0000
     1.0000   1.0000   1.0000   1.0000   1.0000   1.0000   1.0000   1.0000
     1.0000   1.0000   1.0000   1.0000   1.0000   1.0000   1.0000   1.0000
     1.0000   1.0000   1.0000   1.0000   1.0000   1.0000   1.0000   1.0000
     1.0000   1.0000   1.0000   1.0000   1.0000   1.0000   1.0000   1.0000
     1.0000   1.0000   1.0000   1.0000   1.0000   1.0000   1.0000   1.0000
     1.0000   1.0000   1.0000   1.0000   1.0000   1.0000   1.0000   1.0000
     1.0000   1.0000   1.0000   1.0000

          k = 0.3333-0.3333 0.6667 ( 11626 PWs)   bands (ev):

   -78.9069 -78.9069 -78.9069 -78.9069 -73.7352 -73.7352 -73.7352 -73.7352
   -45.0770 -45.0769 -45.0765 -45.0765 -44.9748 -44.9748 -44.9748 -44.9748
   -44.9748 -44.9748 -44.9747 -44.9747 -40.0038 -40.0038 -40.0029 -40.0029
   -39.9778 -39.9778 -39.9778 -39.9777 -39.9777 -39.9777 -39.9777 -39.9777
   -11.7370 -11.7331 -11.7319 -11.7314 -11.7300 -11.7296 -11.7289 -11.7282
   -11.7273 -11.7270 -11.7251 -11.7208 -11.7188 -11.7183 -11.7167 -11.7150
   -11.7149 -11.7136 -11.7133 -11.7131 -11.7126 -11.7126 -11.7121 -11.7121
   -11.7120 -11.7103 -11.7101 -11.7099 -11.7098 -11.7035 -11.7031 -11.7018
   -11.7018 -11.7011 -11.7010 -11.7002 -11.7001 -11.6988 -11.6983 -11.6965
    -6.6551  -6.3799  -6.3209  -6.2644  -6.0593  -6.0219  -5.9775  -5.7554
    -5.4758  -5.4740  -5.4738  -5.4524  -5.4326  -5.3925  -5.3799  -5.3440
    -5.2649  -5.2281  -5.2255  -5.1915  -5.1583  -5.1579  -5.0553  -5.0466
     0.9480   0.9724   0.9957   1.0796   1.0887   1.1027   1.1422   1.3473
     4.2059   4.2253   4.4637   4.6069   4.6408   4.6451   4.6612   4.7538
     4.8023   4.8297   4.8714   4.9193   4.9222   4.9531   5.0256   5.0649
     5.0660   5.0780   5.1529   5.2028   5.7449   6.1448   6.3130   6.5255
     6.5422   6.7195   6.7838   6.8003   6.8625   6.9094   7.0161   7.0183
     7.1493   7.1688   7.2350   7.3181   7.4161   7.4274   7.4679   7.5519
     7.7523   7.7830   7.8041   7.9732   7.9918   8.1122   8.3223   8.4560
     8.5087   8.5632   8.6941   8.7746   8.8263   9.1782   9.2393   9.3113
     9.4642   9.4698   9.5127   9.5589   9.6567   9.6809   9.6843   9.7593
     9.8229   9.8436   9.8939   9.9265   9.9845  10.0068  10.0100  10.0116
    10.0304  10.0637  10.1215  10.1348  10.1560  10.1734  10.3464  10.3507
    10.4670  10.4868  10.5085  10.5899  10.7945  10.8539  11.2510  11.3412
    11.3423  11.3749  11.8306  11.8635

     occupation numbers 
     1.0000   1.0000   1.0000   1.0000   1.0000   1.0000   1.0000   1.0000
     1.0000   1.0000   1.0000   1.0000   1.0000   1.0000   1.0000   1.0000
     1.0000   1.0000   1.0000   1.0000   1.0000   1.0000   1.0000   1.0000
     1.0000   1.0000   1.0000   1.0000   1.0000   1.0000   1.0000   1.0000
     1.0000   1.0000   1.0000   1.0000   1.0000   1.0000   1.0000   1.0000
     1.0000   1.0000   1.0000   1.0000   1.0000   1.0000   1.0000   1.0000
     1.0000   1.0000   1.0000   1.0000   1.0000   1.0000   1.0000   1.0000
     1.0000   1.0000   1.0000   1.0000   1.0000   1.0000   1.0000   1.0000
     1.0000   1.0000   1.0000   1.0000   1.0000   1.0000   1.0000   1.0000
     1.0000   1.0000   1.0000   1.0000   1.0000   1.0000   1.0000   1.0000
     1.0000   1.0000   1.0000   1.0000   1.0000   1.0000   1.0000   1.0000
     1.0000   1.0000   1.0000   1.0000   1.0000   1.0000   1.0000   1.0000
     1.0000   1.0000   1.0000   1.0000   1.0000   1.0000   1.0000   1.0000
     1.0000   1.0000   1.0000   1.0000   1.0000   1.0000   1.0000   1.0000
     1.0000   1.0000   1.0000   1.0000   1.0000   1.0000   1.0000   1.0000
     1.0000   1.0000   1.0000   1.0000   1.0000   1.0000   1.0000   1.0000
     1.0000   1.0000   1.0000   1.0000   1.0000   1.0000   1.0000   1.0000
     1.0000   1.0000   1.0000   1.0000   1.0000   1.0000   1.0000   1.0000
     1.0000   1.0000   1.0000   1.0000   1.0000   1.0000   1.0000   1.0000
     1.0000   1.0000   1.0000   1.0000   1.0000   1.0000   1.0000   1.0000
     1.0000   1.0000   1.0000   1.0000   1.0000   1.0000   1.0000   1.0000
     1.0000   1.0000   1.0000   1.0000   1.0000   1.0000   1.0000   1.0000
     1.0000   1.0000   1.0000   1.0000   1.0000   1.0000   1.0000   1.0000
     1.0000   1.0000   1.0000   1.0000   1.0000   1.0000   1.0000   1.0000
     1.0000   1.0000   1.0000   1.0000

          k = 0.3333-0.3333 1.0000 ( 11590 PWs)   bands (ev):

   -78.9069 -78.9069 -78.9069 -78.9069 -73.7352 -73.7352 -73.7352 -73.7352
   -45.0771 -45.0771 -45.0762 -45.0761 -44.9749 -44.9749 -44.9748 -44.9747
   -44.9747 -44.9747 -44.9747 -44.9747 -40.0043 -40.0042 -40.0025 -40.0024
   -39.9779 -39.9778 -39.9778 -39.9777 -39.9776 -39.9776 -39.9776 -39.9776
   -11.7472 -11.7407 -11.7401 -11.7375 -11.7370 -11.7355 -11.7352 -11.7344
   -11.7322 -11.7262 -11.7262 -11.7242 -11.7196 -11.7184 -11.7174 -11.7172
   -11.7160 -11.7159 -11.7155 -11.7150 -11.7110 -11.7108 -11.7095 -11.7094
   -11.7061 -11.7060 -11.7059 -11.7047 -11.7047 -11.7005 -11.6999 -11.6988
   -11.6984 -11.6983 -11.6971 -11.6970 -11.6957 -11.6927 -11.6925 -11.6896
    -6.7888  -6.5118  -6.3793  -6.1332  -6.0658  -5.8116  -5.7599  -5.5883
    -5.5595  -5.5463  -5.4955  -5.4687  -5.4586  -5.4184  -5.3529  -5.3216
    -5.2882  -5.2828  -5.2638  -5.2405  -5.2074  -5.1720  -5.0267  -5.0187
     0.8682   0.8962   0.9450   0.9767   1.1277   1.1753   1.2131   1.4864
     3.8043   3.8140   4.2760   4.5210   4.6186   4.6339   4.6392   4.7358
     4.8089   4.8278   4.9307   5.0456   5.1026   5.1213   5.1245   5.1563
     5.1955   5.2183   5.2196   5.3428   5.5696   6.0696   6.3904   6.5872
     6.6057   6.6872   6.7876   6.7955   6.8021   6.8743   6.9557   6.9653
     6.9937   7.1080   7.5917   7.6433   7.6595   7.6770   7.7529   7.7787
     7.8572   7.9165   7.9807   8.0435   8.0522   8.0597   8.4068   8.4491
     8.4506   8.5130   8.7291   8.7316   8.9001   8.9679   9.0696   9.0912
     9.1832   9.1960   9.2542   9.2733   9.3478   9.4443   9.6472   9.7442
     9.7849   9.8429   9.8651   9.8798   9.8877   9.8918   9.9921   9.9927
    10.0151  10.0693  10.0791  10.1465  10.1506  10.1518  10.1915  10.3802
    10.4281  10.4647  10.5469  10.6433  10.6772  10.7228  11.2078  11.3130
    11.3670  11.3767  12.2082  12.2670

     occupation numbers 
     1.0000   1.0000   1.0000   1.0000   1.0000   1.0000   1.0000   1.0000
     1.0000   1.0000   1.0000   1.0000   1.0000   1.0000   1.0000   1.0000
     1.0000   1.0000   1.0000   1.0000   1.0000   1.0000   1.0000   1.0000
     1.0000   1.0000   1.0000   1.0000   1.0000   1.0000   1.0000   1.0000
     1.0000   1.0000   1.0000   1.0000   1.0000   1.0000   1.0000   1.0000
     1.0000   1.0000   1.0000   1.0000   1.0000   1.0000   1.0000   1.0000
     1.0000   1.0000   1.0000   1.0000   1.0000   1.0000   1.0000   1.0000
     1.0000   1.0000   1.0000   1.0000   1.0000   1.0000   1.0000   1.0000
     1.0000   1.0000   1.0000   1.0000   1.0000   1.0000   1.0000   1.0000
     1.0000   1.0000   1.0000   1.0000   1.0000   1.0000   1.0000   1.0000
     1.0000   1.0000   1.0000   1.0000   1.0000   1.0000   1.0000   1.0000
     1.0000   1.0000   1.0000   1.0000   1.0000   1.0000   1.0000   1.0000
     1.0000   1.0000   1.0000   1.0000   1.0000   1.0000   1.0000   1.0000
     1.0000   1.0000   1.0000   1.0000   1.0000   1.0000   1.0000   1.0000
     1.0000   1.0000   1.0000   1.0000   1.0000   1.0000   1.0000   1.0000
     1.0000   1.0000   1.0000   1.0000   1.0000   1.0000   1.0000   1.0000
     1.0000   1.0000   1.0000   1.0000   1.0000   1.0000   1.0000   1.0000
     1.0000   1.0000   1.0000   1.0000   1.0000   1.0000   1.0000   1.0000
     1.0000   1.0000   1.0000   1.0000   1.0000   1.0000   1.0000   1.0000
     1.0000   1.0000   1.0000   1.0000   1.0000   1.0000   1.0000   1.0000
     1.0000   1.0000   1.0000   1.0000   1.0000   1.0000   1.0000   1.0000
     1.0000   1.0000   1.0000   1.0000   1.0000   1.0000   1.0000   1.0000
     1.0000   1.0000   1.0000   1.0000   1.0000   1.0000   1.0000   1.0000
     1.0000   1.0000   1.0000   1.0000   1.0000   1.0000   1.0000   1.0000
     1.0000   1.0000   1.0000   1.0000

     highest occupied level (ev):    12.2670



               ==================================================
                            POLARIZATION CALCULATION
                         !!! NOT THOROUGHLY TESTED !!!
               --------------------------------------------------


                     K-POINTS STRINGS USED IN CALCULATIONS
                     ~~~~~~~~~~~~~~~~~~~~~~~~~~~~~~~~~~~~~

       G-vector along string (2 pi/a):  0.00000  0.00000  1.00000
       Modulus of the vector (1/bohr):  0.42130
       Number of k-points per string:   4
       Number of different strings  :   5


                               IONIC POLARIZATION
                               ~~~~~~~~~~~~~~~~~~

  ============================================================================
    Ion    Species    Charge              Position                Phase
  ----------------------------------------------------------------------------
     1        Bi      15.000       0.0000  0.0000  0.0000     0.00000 (mod 1)
     2        Bi      15.000       0.5000  0.5000  0.0000     0.00000 (mod 1)
     3        Bi      15.000       0.5000  0.0000  0.0000     0.00000 (mod 1)
     4        Bi      15.000       0.0000  0.5000  0.5000    -0.50000 (mod 1)
     5        Bi      15.000       0.0000  0.0000  0.5000    -0.50000 (mod 1)
     6        Bi      15.000       0.5000  0.5000  0.5000    -0.50000 (mod 1)
     7        Bi      15.000       0.5000  0.0000  0.5000    -0.50000 (mod 1)
     8        Bi      15.000       0.0000  0.5000  0.0000     0.00000 (mod 1)
     9        Fe      16.000       0.2500  0.2500  0.2500     0.00000 (mod 2)
    10        Fe      16.000       0.7500  0.7500  0.2500     0.00000 (mod 2)
    11        Fe      16.000       0.7500  0.2500  0.2500     0.00000 (mod 2)
    12        Fe      16.000       0.2500  0.7500  0.7500     0.00000 (mod 2)
    13        Fe      16.000       0.2500  0.2500  0.7500     0.00000 (mod 2)
    14        Fe      16.000       0.7500  0.7500  0.7500     0.00000 (mod 2)
    15        Fe      16.000       0.7500  0.2500  0.7500     0.00000 (mod 2)
    16        Fe      16.000       0.2500  0.7500  0.2500     0.00000 (mod 2)
    17        O        6.000       0.2500  0.2500  0.0000     0.00000 (mod 2)
    18        O        6.000       0.2500  0.0000  0.2500    -0.50000 (mod 2)
    19        O        6.000       0.0000  0.2500  0.2500    -0.50000 (mod 2)
    20        O        6.000       0.7500  0.7500  0.0000     0.00000 (mod 2)
    21        O        6.000       0.7500  0.2500  0.0000     0.00000 (mod 2)
    22        O        6.000       0.2500  0.7500  0.5000    -1.00000 (mod 2)
    23        O        6.000       0.2500  0.2500  0.5000    -1.00000 (mod 2)
    24        O        6.000       0.7500  0.7500  0.5000    -1.00000 (mod 2)
    25        O        6.000       0.7500  0.2500  0.5000    -1.00000 (mod 2)
    26        O        6.000       0.2500  0.7500  0.0000     0.00000 (mod 2)
    27        O        6.000       0.7500  0.5000  0.2500    -0.50000 (mod 2)
    28        O        6.000       0.7500  0.0000  0.2500    -0.50000 (mod 2)
    29        O        6.000       0.2500  0.5000  0.7500     0.50000 (mod 2)
    30        O        6.000       0.2500  0.0000  0.7500     0.50000 (mod 2)
    31        O        6.000       0.7500  0.5000  0.7500     0.50000 (mod 2)
    32        O        6.000       0.7500  0.0000  0.7500     0.50000 (mod 2)
    33        O        6.000       0.2500  0.5000  0.2500    -0.50000 (mod 2)
    34        O        6.000       0.5000  0.7500  0.2500    -0.50000 (mod 2)
    35        O        6.000       0.5000  0.2500  0.2500    -0.50000 (mod 2)
    36        O        6.000       0.0000  0.7500  0.7500     0.50000 (mod 2)
    37        O        6.000       0.0000  0.2500  0.7500     0.50000 (mod 2)
    38        O        6.000       0.5000  0.7500  0.7500     0.50000 (mod 2)
    39        O        6.000       0.5000  0.2500  0.7500     0.50000 (mod 2)
    40        O        6.000       0.0000  0.7500  0.2500    -0.50000 (mod 2)
  ----------------------------------------------------------------------------
                                               IONIC PHASE:   0.00000 (mod 1)
  ============================================================================


                            ELECTRONIC POLARIZATION
                            ~~~~~~~~~~~~~~~~~~~~~~~

  ============================================================================
   Spin    String     Weight      First k-point in string         Phase
  ----------------------------------------------------------------------------
    up        1      0.111111      0.0000  0.0000  0.0000    -0.00000
    up        2      0.222222      0.0000  0.3333  0.0000    -0.00000
    up        3      0.222222      0.3333  0.0000  0.0000     0.00000
    up        4      0.222222      0.3333  0.3333  0.0000    -0.00000
    up        5      0.222222      0.3333 -0.3333  0.0000    -0.00000
  ----------------------------------------------------------------------------
   down      6       0.111111      0.0000  0.0000  0.0000    -0.00000
   down      7       0.222222      0.0000  0.3333  0.0000    -0.00000
   down      8       0.222222      0.3333  0.0000  0.0000     0.00000
   down      9       0.222222      0.3333  0.3333  0.0000     0.00000
   down     10       0.222222      0.3333 -0.3333  0.0000    -0.00000
  ----------------------------------------------------------------------------
                                        Average phase (up):  -0.00000
                                      Average phase (down):  -0.00000
                                          ELECTRONIC PHASE:  -0.00000
  ============================================================================


                               SUMMARY OF PHASES
                               ~~~~~~~~~~~~~~~~~

                          Ionic Phase:  0.00000
                     Electronic Phase: -0.00000
                          TOTAL PHASE: -0.00000 MOD_TOT: 1


                             VALUES OF POLARIZATION
                             ~~~~~~~~~~~~~~~~~~~~~~

        The calculation of phases done along the direction of vector 3
        of the reciprocal lattice gives the following contribution to
        the polarization vector (in different units, and being Omega
        the volume of the unit cell):

           P =  -0.0000034  (mod  14.9137186)  (e/Omega).bohr

           P =  -0.0000000  (mod   0.0044960)  e/bohr^2

           P =  -0.0000001  (mod   0.2570451)  C/m^2

        The polarization direction is:  ( 0.00000 , 0.00000 , 1.00000 )


               ==================================================



     Writing output data file /home/aldair1809/Documentos/QE/4BFO/temp_cubic/nscf/bifeo3.save/

     init_run     :    141.60s CPU    142.62s WALL (       1 calls)
     electrons    :  11995.58s CPU  12098.63s WALL (       1 calls)

     Called by init_run:
     wfcinit      :    137.57s CPU    137.94s WALL (       1 calls)
     wfcinit:atom :      0.48s CPU      0.49s WALL (      40 calls)
     wfcinit:wfcr :    320.76s CPU    322.74s WALL (      40 calls)
     potinit      :      0.37s CPU      0.41s WALL (       1 calls)
     hinit0       :      0.50s CPU      0.51s WALL (       1 calls)

     Called by electrons:
     c_bands      :  11343.69s CPU  11445.69s WALL (       1 calls)
     v_of_rho     :      0.30s CPU      0.34s WALL (       1 calls)
     v_h          :      0.01s CPU      0.02s WALL (       1 calls)
     v_xc         :      0.29s CPU      0.32s WALL (       1 calls)
     newd         :      3.06s CPU      3.60s WALL (       1 calls)

     Called by c_bands:
     init_us_2    :      2.05s CPU      2.08s WALL (     140 calls)
     ccgdiagg     :  10575.12s CPU  10671.43s WALL (     121 calls)
     wfcrot       :    764.91s CPU    769.92s WALL (     121 calls)

     Called by sum_band:

     Called by *cgdiagg:
     h_psi        :   4986.51s CPU   5059.14s WALL (  283389 calls)
     s_psi        :   3611.41s CPU   3623.02s WALL (  566697 calls)

     Called by h_psi:
     h_psi:calbec :   1921.50s CPU   1946.01s WALL (  283389 calls)
     vloc_psi     :    866.66s CPU    906.86s WALL (  283389 calls)
     add_vuspsi   :   1853.14s CPU   1858.22s WALL (  283389 calls)
     vhpsi        :    335.81s CPU    339.75s WALL (  283389 calls)
     hs_1psi      :   6249.29s CPU   6322.69s WALL (  283268 calls)
     s_1psi       :   3393.32s CPU   3409.46s WALL (  283268 calls)

     General routines
     calbec       :   3966.30s CPU   4006.34s WALL (  850146 calls)
     fft          :      0.22s CPU      0.24s WALL (      23 calls)
     ffts         :      0.00s CPU      0.00s WALL (       2 calls)
     fftw         :    728.17s CPU    765.79s WALL (  620048 calls)
     interpolate  :      0.03s CPU      0.03s WALL (       2 calls)
     davcio       :      0.04s CPU      1.25s WALL (     220 calls)

     Parallel routines
     fft_scatt_xy :    108.47s CPU    115.71s WALL (  620073 calls)
     fft_scatt_yz :    118.79s CPU    129.54s WALL (  620073 calls)

     Hubbard U routines
     vhpsi        :    335.81s CPU    339.75s WALL (  283389 calls)

     PWSCF        :      3h22m CPU      3h24m WALL


   This run was terminated on:  19:56:52   6Dec2024            

=------------------------------------------------------------------------------=
   JOB DONE.
=------------------------------------------------------------------------------=
