
     Program PWSCF v.6.7MaX starts on  6Dec2024 at 14:35:25 

     This program is part of the open-source Quantum ESPRESSO suite
     for quantum simulation of materials; please cite
         "P. Giannozzi et al., J. Phys.:Condens. Matter 21 395502 (2009);
         "P. Giannozzi et al., J. Phys.:Condens. Matter 29 465901 (2017);
          URL http://www.quantum-espresso.org", 
     in publications or presentations arising from this work. More details at
     http://www.quantum-espresso.org/quote

     Parallel version (MPI), running on     4 processors

     MPI processes distributed on     1 nodes
     R & G space division:  proc/nbgrp/npool/nimage =       4
     Waiting for input...
     Reading input from standard input

     Current dimensions of program PWSCF are:
     Max number of different atomic species (ntypx) = 10
     Max number of k-points (npk) =  40000
     Max angular momentum in pseudopotentials (lmaxx) =  3
     Message from routine iosys:
     wrong startingpot: use default (1)

     Subspace diagonalization in iterative solution of the eigenvalue problem:
     one sub-group per band group will be used
     scalapack distributed-memory algorithm (size of sub-group:  2*  2 procs)

     Found symmetry operation: I + ( -0.5000 -0.5000  0.0000)
     This is a supercell, fractional translations are disabled

     Parallelization info
     --------------------
     sticks:   dense  smooth     PW     G-vecs:    dense   smooth      PW
     Min        1239     619    168                65627    23147    3282
     Max        1240     620    169                65630    23148    3285
     Sum        4957    2477    673               262515    92589   13133



     bravais-lattice index     =            1
     lattice parameter (alat)  =      14.9137  a.u.
     unit-cell volume          =    3317.0944 (a.u.)^3
     number of atoms/cell      =           40
     number of atomic types    =            4
     number of electrons       =       392.00
     number of Kohn-Sham states=          235
     kinetic-energy cutoff     =      35.0000  Ry
     charge density cutoff     =     280.0000  Ry
     scf convergence threshold =      1.0E-05
     mixing beta               =       0.4000
     number of iterations used =            8  plain     mixing
     Exchange-correlation= SLA  PW   PSX  PSC
                           (   1   4  10   8   0   0   0)

     celldm(1)=  14.913719  celldm(2)=   0.000000  celldm(3)=   0.000000
     celldm(4)=   0.000000  celldm(5)=   0.000000  celldm(6)=   0.000000

     crystal axes: (cart. coord. in units of alat)
               a(1) = (   1.000000   0.000000   0.000000 )  
               a(2) = (   0.000000   1.000000   0.000000 )  
               a(3) = (   0.000000   0.000000   1.000000 )  

     reciprocal axes: (cart. coord. in units 2 pi/alat)
               b(1) = (  1.000000  0.000000  0.000000 )  
               b(2) = (  0.000000  1.000000  0.000000 )  
               b(3) = (  0.000000  0.000000  1.000000 )  


     PseudoPot. # 1 for O  read from file:
     /home/aldair1809/Programas/QE/q-e-qe-7.3/pseudo/o_pbesol_v1.2.uspp.F.UPF
     MD5 check sum: 501638753501ef6325af9037351f7734
     Pseudo is Ultrasoft + core correction, Zval =  6.0
     Generated by new atomic code, or converted to UPF format
     Using radial grid of  737 points,  5 beta functions with: 
                l(1) =   0
                l(2) =   0
                l(3) =   1
                l(4) =   1
                l(5) =   2
     Q(r) pseudized with  8 coefficients,  rinner =    0.900   0.900   0.900
                                                       0.900   0.900

     PseudoPot. # 2 for Bi read from file:
     /home/aldair1809/Programas/QE/q-e-qe-7.3/pseudo/bi_pbesol_v1.uspp.F.UPF
     MD5 check sum: 588b87649a5c12ad5a0392deab1dcc00
     Pseudo is Ultrasoft + core correction, Zval = 15.0
     Generated by new atomic code, or converted to UPF format
     Using radial grid of  899 points,  6 beta functions with: 
                l(1) =   0
                l(2) =   0
                l(3) =   1
                l(4) =   1
                l(5) =   2
                l(6) =   2
     Q(r) pseudized with  6 coefficients,  rinner =    1.000   1.000   1.000
                                                       1.000   1.000

     PseudoPot. # 3 for Fe read from file:
     /home/aldair1809/Programas/QE/q-e-qe-7.3/pseudo/fe_pbesol_v1.5.uspp.F.UPF
     MD5 check sum: a3f38e9a1a818e424be8f97771a26c64
     Pseudo is Ultrasoft + core correction, Zval = 16.0
     Generated by new atomic code, or converted to UPF format
     Using radial grid of  861 points,  6 beta functions with: 
                l(1) =   0
                l(2) =   0
                l(3) =   1
                l(4) =   1
                l(5) =   2
                l(6) =   2
     Q(r) pseudized with  8 coefficients,  rinner =    1.000   1.000   1.000
                                                       1.000   1.000

     PseudoPot. # 4 for Fe read from file:
     /home/aldair1809/Programas/QE/q-e-qe-7.3/pseudo/fe_pbesol_v1.5.uspp.F.UPF
     MD5 check sum: a3f38e9a1a818e424be8f97771a26c64
     Pseudo is Ultrasoft + core correction, Zval = 16.0
     Generated by new atomic code, or converted to UPF format
     Using radial grid of  861 points,  6 beta functions with: 
                l(1) =   0
                l(2) =   0
                l(3) =   1
                l(4) =   1
                l(5) =   2
                l(6) =   2
     Q(r) pseudized with  8 coefficients,  rinner =    1.000   1.000   1.000
                                                       1.000   1.000

     atomic species   valence    mass     pseudopotential
        O              6.00    15.99940     O ( 1.00)
        Bi            15.00   208.98040     Bi( 1.00)
        Fe1           16.00    55.84500     Fe( 1.00)
        Fe2           16.00    55.84500     Fe( 1.00)

     Starting magnetic structure 
     atomic species   magnetization
        O            0.000
        Bi           0.000
        Fe1         -0.800
        Fe2          0.800


     Simplified LDA+U calculation (l_max = 2) with parameters (eV):
     atomic species    L          U    alpha       J0     beta
        Fe1            2     4.1000   0.0000   0.0000   0.0000
        Fe2            2     4.1000   0.0000   0.0000   0.0000



      8 Sym. Ops., with inversion, found


                                    s                        frac. trans.

      isym =  1     identity                                     

 cryst.   s( 1) = (     1          0          0      )
                  (     0          1          0      )
                  (     0          0          1      )

 cart.    s( 1) = (  1.0000000  0.0000000  0.0000000 )
                  (  0.0000000  1.0000000  0.0000000 )
                  (  0.0000000  0.0000000  1.0000000 )


      isym =  2     180 deg rotation - cart. axis [0,0,1]        

 cryst.   s( 2) = (    -1          0          0      )
                  (     0         -1          0      )
                  (     0          0          1      )

 cart.    s( 2) = ( -1.0000000  0.0000000  0.0000000 )
                  (  0.0000000 -1.0000000  0.0000000 )
                  (  0.0000000  0.0000000  1.0000000 )


      isym =  3     180 deg rotation - cart. axis [1,1,0]        

 cryst.   s( 3) = (     0          1          0      )
                  (     1          0          0      )
                  (     0          0         -1      )

 cart.    s( 3) = (  0.0000000  1.0000000  0.0000000 )
                  (  1.0000000  0.0000000  0.0000000 )
                  (  0.0000000  0.0000000 -1.0000000 )


      isym =  4     180 deg rotation - cart. axis [1,-1,0]       

 cryst.   s( 4) = (     0         -1          0      )
                  (    -1          0          0      )
                  (     0          0         -1      )

 cart.    s( 4) = (  0.0000000 -1.0000000  0.0000000 )
                  ( -1.0000000  0.0000000  0.0000000 )
                  (  0.0000000  0.0000000 -1.0000000 )


      isym =  5     inversion                                    

 cryst.   s( 5) = (    -1          0          0      )
                  (     0         -1          0      )
                  (     0          0         -1      )

 cart.    s( 5) = ( -1.0000000  0.0000000  0.0000000 )
                  (  0.0000000 -1.0000000  0.0000000 )
                  (  0.0000000  0.0000000 -1.0000000 )


      isym =  6     inv. 180 deg rotation - cart. axis [0,0,1]   

 cryst.   s( 6) = (     1          0          0      )
                  (     0          1          0      )
                  (     0          0         -1      )

 cart.    s( 6) = (  1.0000000  0.0000000  0.0000000 )
                  (  0.0000000  1.0000000  0.0000000 )
                  (  0.0000000  0.0000000 -1.0000000 )


      isym =  7     inv. 180 deg rotation - cart. axis [1,1,0]   

 cryst.   s( 7) = (     0         -1          0      )
                  (    -1          0          0      )
                  (     0          0          1      )

 cart.    s( 7) = (  0.0000000 -1.0000000  0.0000000 )
                  ( -1.0000000  0.0000000  0.0000000 )
                  (  0.0000000  0.0000000  1.0000000 )


      isym =  8     inv. 180 deg rotation - cart. axis [1,-1,0]  

 cryst.   s( 8) = (     0          1          0      )
                  (     1          0          0      )
                  (     0          0          1      )

 cart.    s( 8) = (  0.0000000  1.0000000  0.0000000 )
                  (  1.0000000  0.0000000  0.0000000 )
                  (  0.0000000  0.0000000  1.0000000 )


     point group D_2h (mmm) 
     there are  8 classes
     the character table:

       E     C2    C2'   C2''  i     s_v   s_v'  s_v''
A_g    1.00  1.00  1.00  1.00  1.00  1.00  1.00  1.00
B_1g   1.00  1.00 -1.00 -1.00  1.00  1.00 -1.00 -1.00
B_2g   1.00 -1.00  1.00 -1.00  1.00 -1.00  1.00 -1.00
B_3g   1.00 -1.00 -1.00  1.00  1.00 -1.00 -1.00  1.00
A_u    1.00  1.00  1.00  1.00 -1.00 -1.00 -1.00 -1.00
B_1u   1.00  1.00 -1.00 -1.00 -1.00 -1.00  1.00  1.00
B_2u   1.00 -1.00  1.00 -1.00 -1.00  1.00 -1.00  1.00
B_3u   1.00 -1.00 -1.00  1.00 -1.00  1.00  1.00 -1.00

     the symmetry operations in each class and the name of the first element:

     E        1
          identity                                               
     C2       2
          180 deg rotation - cart. axis [0,0,1]                  
     C2'      4
          180 deg rotation - cart. axis [1,-1,0]                 
     C2''     3
          180 deg rotation - cart. axis [1,1,0]                  
     i        5
          inversion                                              
     s_v      6
          inv. 180 deg rotation - cart. axis [0,0,1]             
     s_v'     8
          inv. 180 deg rotation - cart. axis [1,-1,0]            
     s_v''    7
          inv. 180 deg rotation - cart. axis [1,1,0]             

   Cartesian axes

     site n.     atom                  positions (alat units)
         1           Bi  tau(   1) = (   0.0000000   0.0000000   0.0000000  )
         2           Bi  tau(   2) = (   0.5000000   0.5000000   0.0000000  )
         3           Bi  tau(   3) = (   0.5000000   0.0000000   0.0000000  )
         4           Bi  tau(   4) = (   0.0000000   0.5000000   0.5000000  )
         5           Bi  tau(   5) = (   0.0000000   0.0000000   0.5000000  )
         6           Bi  tau(   6) = (   0.5000000   0.5000000   0.5000000  )
         7           Bi  tau(   7) = (   0.5000000   0.0000000   0.5000000  )
         8           Bi  tau(   8) = (   0.0000000   0.5000000   0.0000000  )
         9           Fe2 tau(   9) = (   0.2500000   0.2500000   0.2500000  )
        10           Fe2 tau(  10) = (   0.7500000   0.7500000   0.2500000  )
        11           Fe1 tau(  11) = (   0.7500000   0.2500000   0.2500000  )
        12           Fe1 tau(  12) = (   0.2500000   0.7500000   0.7500000  )
        13           Fe2 tau(  13) = (   0.2500000   0.2500000   0.7500000  )
        14           Fe2 tau(  14) = (   0.7500000   0.7500000   0.7500000  )
        15           Fe1 tau(  15) = (   0.7500000   0.2500000   0.7500000  )
        16           Fe1 tau(  16) = (   0.2500000   0.7500000   0.2500000  )
        17           O   tau(  17) = (   0.2500000   0.2500000   0.0000000  )
        18           O   tau(  18) = (   0.2500000   0.0000000   0.2500000  )
        19           O   tau(  19) = (   0.0000000   0.2500000   0.2500000  )
        20           O   tau(  20) = (   0.7500000   0.7500000   0.0000000  )
        21           O   tau(  21) = (   0.7500000   0.2500000   0.0000000  )
        22           O   tau(  22) = (   0.2500000   0.7500000   0.5000000  )
        23           O   tau(  23) = (   0.2500000   0.2500000   0.5000000  )
        24           O   tau(  24) = (   0.7500000   0.7500000   0.5000000  )
        25           O   tau(  25) = (   0.7500000   0.2500000   0.5000000  )
        26           O   tau(  26) = (   0.2500000   0.7500000   0.0000000  )
        27           O   tau(  27) = (   0.7500000   0.5000000   0.2500000  )
        28           O   tau(  28) = (   0.7500000   0.0000000   0.2500000  )
        29           O   tau(  29) = (   0.2500000   0.5000000   0.7500000  )
        30           O   tau(  30) = (   0.2500000   0.0000000   0.7500000  )
        31           O   tau(  31) = (   0.7500000   0.5000000   0.7500000  )
        32           O   tau(  32) = (   0.7500000   0.0000000   0.7500000  )
        33           O   tau(  33) = (   0.2500000   0.5000000   0.2500000  )
        34           O   tau(  34) = (   0.5000000   0.7500000   0.2500000  )
        35           O   tau(  35) = (   0.5000000   0.2500000   0.2500000  )
        36           O   tau(  36) = (   0.0000000   0.7500000   0.7500000  )
        37           O   tau(  37) = (   0.0000000   0.2500000   0.7500000  )
        38           O   tau(  38) = (   0.5000000   0.7500000   0.7500000  )
        39           O   tau(  39) = (   0.5000000   0.2500000   0.7500000  )
        40           O   tau(  40) = (   0.0000000   0.7500000   0.2500000  )

   Crystallographic axes

     site n.     atom                  positions (cryst. coord.)
         1           Bi  tau(   1) = (  0.0000000  0.0000000  0.0000000  )
         2           Bi  tau(   2) = (  0.5000000  0.5000000  0.0000000  )
         3           Bi  tau(   3) = (  0.5000000  0.0000000  0.0000000  )
         4           Bi  tau(   4) = (  0.0000000  0.5000000  0.5000000  )
         5           Bi  tau(   5) = (  0.0000000  0.0000000  0.5000000  )
         6           Bi  tau(   6) = (  0.5000000  0.5000000  0.5000000  )
         7           Bi  tau(   7) = (  0.5000000  0.0000000  0.5000000  )
         8           Bi  tau(   8) = (  0.0000000  0.5000000  0.0000000  )
         9           Fe2 tau(   9) = (  0.2500000  0.2500000  0.2500000  )
        10           Fe2 tau(  10) = (  0.7500000  0.7500000  0.2500000  )
        11           Fe1 tau(  11) = (  0.7500000  0.2500000  0.2500000  )
        12           Fe1 tau(  12) = (  0.2500000  0.7500000  0.7500000  )
        13           Fe2 tau(  13) = (  0.2500000  0.2500000  0.7500000  )
        14           Fe2 tau(  14) = (  0.7500000  0.7500000  0.7500000  )
        15           Fe1 tau(  15) = (  0.7500000  0.2500000  0.7500000  )
        16           Fe1 tau(  16) = (  0.2500000  0.7500000  0.2500000  )
        17           O   tau(  17) = (  0.2500000  0.2500000  0.0000000  )
        18           O   tau(  18) = (  0.2500000  0.0000000  0.2500000  )
        19           O   tau(  19) = (  0.0000000  0.2500000  0.2500000  )
        20           O   tau(  20) = (  0.7500000  0.7500000  0.0000000  )
        21           O   tau(  21) = (  0.7500000  0.2500000  0.0000000  )
        22           O   tau(  22) = (  0.2500000  0.7500000  0.5000000  )
        23           O   tau(  23) = (  0.2500000  0.2500000  0.5000000  )
        24           O   tau(  24) = (  0.7500000  0.7500000  0.5000000  )
        25           O   tau(  25) = (  0.7500000  0.2500000  0.5000000  )
        26           O   tau(  26) = (  0.2500000  0.7500000  0.0000000  )
        27           O   tau(  27) = (  0.7500000  0.5000000  0.2500000  )
        28           O   tau(  28) = (  0.7500000  0.0000000  0.2500000  )
        29           O   tau(  29) = (  0.2500000  0.5000000  0.7500000  )
        30           O   tau(  30) = (  0.2500000  0.0000000  0.7500000  )
        31           O   tau(  31) = (  0.7500000  0.5000000  0.7500000  )
        32           O   tau(  32) = (  0.7500000  0.0000000  0.7500000  )
        33           O   tau(  33) = (  0.2500000  0.5000000  0.2500000  )
        34           O   tau(  34) = (  0.5000000  0.7500000  0.2500000  )
        35           O   tau(  35) = (  0.5000000  0.2500000  0.2500000  )
        36           O   tau(  36) = (  0.0000000  0.7500000  0.7500000  )
        37           O   tau(  37) = (  0.0000000  0.2500000  0.7500000  )
        38           O   tau(  38) = (  0.5000000  0.7500000  0.7500000  )
        39           O   tau(  39) = (  0.5000000  0.2500000  0.7500000  )
        40           O   tau(  40) = (  0.0000000  0.7500000  0.2500000  )

     number of k points=     8  Methfessel-Paxton smearing, width (Ry)=  0.0100
                       cart. coord. in units 2pi/alat
        k(    1) = (   0.0000000   0.0000000   0.0000000), wk =   0.0370370
        k(    2) = (   0.0000000   0.0000000   0.3333333), wk =   0.0740741
        k(    3) = (   0.0000000   0.3333333   0.3333333), wk =   0.2962963
        k(    4) = (   0.3333333   0.3333333   0.3333333), wk =   0.1481481
        k(    5) = (   0.3333333   0.0000000   0.0000000), wk =   0.1481481
        k(    6) = (   0.3333333  -0.3333333   0.0000000), wk =   0.0740741
        k(    7) = (  -0.3333333  -0.3333333   0.0000000), wk =   0.0740741
        k(    8) = (   0.3333333  -0.3333333   0.3333333), wk =   0.1481481

                       cryst. coord.
        k(    1) = (   0.0000000   0.0000000   0.0000000), wk =   0.0370370
        k(    2) = (   0.0000000   0.0000000   0.3333333), wk =   0.0740741
        k(    3) = (   0.0000000   0.3333333   0.3333333), wk =   0.2962963
        k(    4) = (   0.3333333   0.3333333   0.3333333), wk =   0.1481481
        k(    5) = (   0.3333333   0.0000000   0.0000000), wk =   0.1481481
        k(    6) = (   0.3333333  -0.3333333   0.0000000), wk =   0.0740741
        k(    7) = (  -0.3333333  -0.3333333   0.0000000), wk =   0.0740741
        k(    8) = (   0.3333333  -0.3333333   0.3333333), wk =   0.1481481

     Dense  grid:   262515 G-vectors     FFT dimensions: (  80,  80,  80)

     Smooth grid:    92589 G-vectors     FFT dimensions: (  60,  60,  60)

     Dynamical RAM for                 wfc:      10.40 MB

     Dynamical RAM for     wfc (w. buffer):     176.72 MB

     Dynamical RAM for             U proj.:       1.77 MB

     Dynamical RAM for  U proj. (w. buff.):      30.08 MB

     Dynamical RAM for           str. fact:       4.01 MB

     Dynamical RAM for           local pot:       0.00 MB

     Dynamical RAM for          nlocal pot:      26.54 MB

     Dynamical RAM for                qrad:       5.37 MB

     Dynamical RAM for          rho,v,vnew:      11.87 MB

     Dynamical RAM for               rhoin:       3.96 MB

     Dynamical RAM for            rho*nmix:      32.05 MB

     Dynamical RAM for           G-vectors:       3.93 MB

     Dynamical RAM for          h,s,v(r/c):       0.63 MB

     Dynamical RAM for          <psi|beta>:       2.15 MB

     Dynamical RAM for      wfcinit/wfcrot:      25.76 MB

     Dynamical RAM for           addusdens:     211.30 MB

     Estimated static dynamical RAM per process >     305.39 MB

     Estimated max dynamical RAM per process >     516.69 MB

     Estimated total dynamical RAM >       2.02 GB

     Check: negative core charge=   -0.000020
     Generating pointlists ...
     new r_m :   0.1031 (alat units)  1.5380 (a.u.) for type    1
     new r_m :   0.1458 (alat units)  2.1750 (a.u.) for type    2
     new r_m :   0.1031 (alat units)  1.5380 (a.u.) for type    3
     new r_m :   0.1031 (alat units)  1.5380 (a.u.) for type    4

     Initial potential from superposition of free atoms

     starting charge  375.99961, renormalised to  392.00000

     negative rho (up, down):  1.805E-01 1.805E-01
 --- in v_hubbard ---
Hubbard energy    0.9643
 -------
     Number of +U iterations with fixed ns =  0
     Starting occupations:
 --- enter write_ns ---
 LDA+U parameters:
U( 3)     =  4.10000000
U( 4)     =  4.10000000
atom    9   Tr[ns(na)] (up, down, total) =   5.00000  1.00000  6.00000
   spin  1
    eigenvalues: 
  1.000  1.000  1.000  1.000  1.000
    eigenvectors:
  1.000  0.000  0.000  0.000  0.000
  0.000  1.000  0.000  0.000  0.000
  0.000  0.000  1.000  0.000  0.000
  0.000  0.000  0.000  1.000  0.000
  0.000  0.000  0.000  0.000  1.000
    occupations:
  1.000  0.000  0.000  0.000  0.000
  0.000  1.000  0.000  0.000  0.000
  0.000  0.000  1.000  0.000  0.000
  0.000  0.000  0.000  1.000  0.000
  0.000  0.000  0.000  0.000  1.000
   spin  2
    eigenvalues: 
  0.200  0.200  0.200  0.200  0.200
    eigenvectors:
  1.000  0.000  0.000  0.000  0.000
  0.000  1.000  0.000  0.000  0.000
  0.000  0.000  1.000  0.000  0.000
  0.000  0.000  0.000  1.000  0.000
  0.000  0.000  0.000  0.000  1.000
    occupations:
  0.200  0.000  0.000  0.000  0.000
  0.000  0.200  0.000  0.000  0.000
  0.000  0.000  0.200  0.000  0.000
  0.000  0.000  0.000  0.200  0.000
  0.000  0.000  0.000  0.000  0.200
atomic mag. moment =   4.00000
atom   10   Tr[ns(na)] (up, down, total) =   5.00000  1.00000  6.00000
   spin  1
    eigenvalues: 
  1.000  1.000  1.000  1.000  1.000
    eigenvectors:
  1.000  0.000  0.000  0.000  0.000
  0.000  1.000  0.000  0.000  0.000
  0.000  0.000  1.000  0.000  0.000
  0.000  0.000  0.000  1.000  0.000
  0.000  0.000  0.000  0.000  1.000
    occupations:
  1.000  0.000  0.000  0.000  0.000
  0.000  1.000  0.000  0.000  0.000
  0.000  0.000  1.000  0.000  0.000
  0.000  0.000  0.000  1.000  0.000
  0.000  0.000  0.000  0.000  1.000
   spin  2
    eigenvalues: 
  0.200  0.200  0.200  0.200  0.200
    eigenvectors:
  1.000  0.000  0.000  0.000  0.000
  0.000  1.000  0.000  0.000  0.000
  0.000  0.000  1.000  0.000  0.000
  0.000  0.000  0.000  1.000  0.000
  0.000  0.000  0.000  0.000  1.000
    occupations:
  0.200  0.000  0.000  0.000  0.000
  0.000  0.200  0.000  0.000  0.000
  0.000  0.000  0.200  0.000  0.000
  0.000  0.000  0.000  0.200  0.000
  0.000  0.000  0.000  0.000  0.200
atomic mag. moment =   4.00000
atom   11   Tr[ns(na)] (up, down, total) =   1.00000  5.00000  6.00000
   spin  1
    eigenvalues: 
  0.200  0.200  0.200  0.200  0.200
    eigenvectors:
  1.000  0.000  0.000  0.000  0.000
  0.000  1.000  0.000  0.000  0.000
  0.000  0.000  1.000  0.000  0.000
  0.000  0.000  0.000  1.000  0.000
  0.000  0.000  0.000  0.000  1.000
    occupations:
  0.200  0.000  0.000  0.000  0.000
  0.000  0.200  0.000  0.000  0.000
  0.000  0.000  0.200  0.000  0.000
  0.000  0.000  0.000  0.200  0.000
  0.000  0.000  0.000  0.000  0.200
   spin  2
    eigenvalues: 
  1.000  1.000  1.000  1.000  1.000
    eigenvectors:
  1.000  0.000  0.000  0.000  0.000
  0.000  1.000  0.000  0.000  0.000
  0.000  0.000  1.000  0.000  0.000
  0.000  0.000  0.000  1.000  0.000
  0.000  0.000  0.000  0.000  1.000
    occupations:
  1.000  0.000  0.000  0.000  0.000
  0.000  1.000  0.000  0.000  0.000
  0.000  0.000  1.000  0.000  0.000
  0.000  0.000  0.000  1.000  0.000
  0.000  0.000  0.000  0.000  1.000
atomic mag. moment =  -4.00000
atom   12   Tr[ns(na)] (up, down, total) =   1.00000  5.00000  6.00000
   spin  1
    eigenvalues: 
  0.200  0.200  0.200  0.200  0.200
    eigenvectors:
  1.000  0.000  0.000  0.000  0.000
  0.000  1.000  0.000  0.000  0.000
  0.000  0.000  1.000  0.000  0.000
  0.000  0.000  0.000  1.000  0.000
  0.000  0.000  0.000  0.000  1.000
    occupations:
  0.200  0.000  0.000  0.000  0.000
  0.000  0.200  0.000  0.000  0.000
  0.000  0.000  0.200  0.000  0.000
  0.000  0.000  0.000  0.200  0.000
  0.000  0.000  0.000  0.000  0.200
   spin  2
    eigenvalues: 
  1.000  1.000  1.000  1.000  1.000
    eigenvectors:
  1.000  0.000  0.000  0.000  0.000
  0.000  1.000  0.000  0.000  0.000
  0.000  0.000  1.000  0.000  0.000
  0.000  0.000  0.000  1.000  0.000
  0.000  0.000  0.000  0.000  1.000
    occupations:
  1.000  0.000  0.000  0.000  0.000
  0.000  1.000  0.000  0.000  0.000
  0.000  0.000  1.000  0.000  0.000
  0.000  0.000  0.000  1.000  0.000
  0.000  0.000  0.000  0.000  1.000
atomic mag. moment =  -4.00000
atom   13   Tr[ns(na)] (up, down, total) =   5.00000  1.00000  6.00000
   spin  1
    eigenvalues: 
  1.000  1.000  1.000  1.000  1.000
    eigenvectors:
  1.000  0.000  0.000  0.000  0.000
  0.000  1.000  0.000  0.000  0.000
  0.000  0.000  1.000  0.000  0.000
  0.000  0.000  0.000  1.000  0.000
  0.000  0.000  0.000  0.000  1.000
    occupations:
  1.000  0.000  0.000  0.000  0.000
  0.000  1.000  0.000  0.000  0.000
  0.000  0.000  1.000  0.000  0.000
  0.000  0.000  0.000  1.000  0.000
  0.000  0.000  0.000  0.000  1.000
   spin  2
    eigenvalues: 
  0.200  0.200  0.200  0.200  0.200
    eigenvectors:
  1.000  0.000  0.000  0.000  0.000
  0.000  1.000  0.000  0.000  0.000
  0.000  0.000  1.000  0.000  0.000
  0.000  0.000  0.000  1.000  0.000
  0.000  0.000  0.000  0.000  1.000
    occupations:
  0.200  0.000  0.000  0.000  0.000
  0.000  0.200  0.000  0.000  0.000
  0.000  0.000  0.200  0.000  0.000
  0.000  0.000  0.000  0.200  0.000
  0.000  0.000  0.000  0.000  0.200
atomic mag. moment =   4.00000
atom   14   Tr[ns(na)] (up, down, total) =   5.00000  1.00000  6.00000
   spin  1
    eigenvalues: 
  1.000  1.000  1.000  1.000  1.000
    eigenvectors:
  1.000  0.000  0.000  0.000  0.000
  0.000  1.000  0.000  0.000  0.000
  0.000  0.000  1.000  0.000  0.000
  0.000  0.000  0.000  1.000  0.000
  0.000  0.000  0.000  0.000  1.000
    occupations:
  1.000  0.000  0.000  0.000  0.000
  0.000  1.000  0.000  0.000  0.000
  0.000  0.000  1.000  0.000  0.000
  0.000  0.000  0.000  1.000  0.000
  0.000  0.000  0.000  0.000  1.000
   spin  2
    eigenvalues: 
  0.200  0.200  0.200  0.200  0.200
    eigenvectors:
  1.000  0.000  0.000  0.000  0.000
  0.000  1.000  0.000  0.000  0.000
  0.000  0.000  1.000  0.000  0.000
  0.000  0.000  0.000  1.000  0.000
  0.000  0.000  0.000  0.000  1.000
    occupations:
  0.200  0.000  0.000  0.000  0.000
  0.000  0.200  0.000  0.000  0.000
  0.000  0.000  0.200  0.000  0.000
  0.000  0.000  0.000  0.200  0.000
  0.000  0.000  0.000  0.000  0.200
atomic mag. moment =   4.00000
atom   15   Tr[ns(na)] (up, down, total) =   1.00000  5.00000  6.00000
   spin  1
    eigenvalues: 
  0.200  0.200  0.200  0.200  0.200
    eigenvectors:
  1.000  0.000  0.000  0.000  0.000
  0.000  1.000  0.000  0.000  0.000
  0.000  0.000  1.000  0.000  0.000
  0.000  0.000  0.000  1.000  0.000
  0.000  0.000  0.000  0.000  1.000
    occupations:
  0.200  0.000  0.000  0.000  0.000
  0.000  0.200  0.000  0.000  0.000
  0.000  0.000  0.200  0.000  0.000
  0.000  0.000  0.000  0.200  0.000
  0.000  0.000  0.000  0.000  0.200
   spin  2
    eigenvalues: 
  1.000  1.000  1.000  1.000  1.000
    eigenvectors:
  1.000  0.000  0.000  0.000  0.000
  0.000  1.000  0.000  0.000  0.000
  0.000  0.000  1.000  0.000  0.000
  0.000  0.000  0.000  1.000  0.000
  0.000  0.000  0.000  0.000  1.000
    occupations:
  1.000  0.000  0.000  0.000  0.000
  0.000  1.000  0.000  0.000  0.000
  0.000  0.000  1.000  0.000  0.000
  0.000  0.000  0.000  1.000  0.000
  0.000  0.000  0.000  0.000  1.000
atomic mag. moment =  -4.00000
atom   16   Tr[ns(na)] (up, down, total) =   1.00000  5.00000  6.00000
   spin  1
    eigenvalues: 
  0.200  0.200  0.200  0.200  0.200
    eigenvectors:
  1.000  0.000  0.000  0.000  0.000
  0.000  1.000  0.000  0.000  0.000
  0.000  0.000  1.000  0.000  0.000
  0.000  0.000  0.000  1.000  0.000
  0.000  0.000  0.000  0.000  1.000
    occupations:
  0.200  0.000  0.000  0.000  0.000
  0.000  0.200  0.000  0.000  0.000
  0.000  0.000  0.200  0.000  0.000
  0.000  0.000  0.000  0.200  0.000
  0.000  0.000  0.000  0.000  0.200
   spin  2
    eigenvalues: 
  1.000  1.000  1.000  1.000  1.000
    eigenvectors:
  1.000  0.000  0.000  0.000  0.000
  0.000  1.000  0.000  0.000  0.000
  0.000  0.000  1.000  0.000  0.000
  0.000  0.000  0.000  1.000  0.000
  0.000  0.000  0.000  0.000  1.000
    occupations:
  1.000  0.000  0.000  0.000  0.000
  0.000  1.000  0.000  0.000  0.000
  0.000  0.000  1.000  0.000  0.000
  0.000  0.000  0.000  1.000  0.000
  0.000  0.000  0.000  0.000  1.000
atomic mag. moment =  -4.00000
N of occupied +U levels =   48.000000
 --- exit write_ns ---
 Atomic wfc used for LDA+U Projector are NOT orthogonalized
     Starting wfcs are  272 randomized atomic wfcs

     total cpu time spent up to now is      149.4 secs

     Self-consistent Calculation

     iteration #  1     ecut=    35.00 Ry     beta= 0.40
     CG style diagonalization
     ethr =  1.00E-02,  avg # of iterations =  2.4
 --- enter write_ns ---
 LDA+U parameters:
U( 3)     =  4.10000000
U( 4)     =  4.10000000
atom    9   Tr[ns(na)] (up, down, total) =   4.96621  0.27496  5.24117
   spin  1
    eigenvalues: 
  0.991  0.991  0.991  0.996  0.997
    eigenvectors:
  0.000  0.000  0.000  1.000  0.000
  0.498  0.500  0.002  0.000  0.000
  0.498  0.500  0.002  0.000  0.000
  0.000  0.000  0.000  0.000  1.000
  0.004  0.000  0.996  0.000  0.000
    occupations:
  0.996  0.000  0.000 -0.000  0.000
  0.000  0.991 -0.000 -0.000 -0.000
  0.000 -0.000  0.991  0.000 -0.000
 -0.000 -0.000  0.000  0.997 -0.000
  0.000 -0.000 -0.000 -0.000  0.991
   spin  2
    eigenvalues: 
  0.028  0.028  0.028  0.096  0.096
    eigenvectors:
  0.000  0.000  0.000  1.000  0.000
  0.489  0.500  0.011  0.000  0.000
  0.489  0.500  0.011  0.000  0.000
  0.000  0.000  0.000  0.000  1.000
  0.022  0.000  0.978  0.000  0.000
    occupations:
  0.096 -0.000 -0.000 -0.000  0.000
 -0.000  0.028 -0.000 -0.000 -0.000
 -0.000 -0.000  0.028  0.000 -0.000
 -0.000 -0.000  0.000  0.096 -0.000
  0.000 -0.000 -0.000 -0.000  0.028
atomic mag. moment =   4.69125
atom   10   Tr[ns(na)] (up, down, total) =   4.96621  0.27496  5.24117
   spin  1
    eigenvalues: 
  0.991  0.991  0.991  0.996  0.997
    eigenvectors:
  0.000  0.000  0.000  1.000  0.000
  0.498  0.500  0.002  0.000  0.000
  0.498  0.500  0.002  0.000  0.000
  0.000  0.000  0.000  0.000  1.000
  0.004  0.000  0.996  0.000  0.000
    occupations:
  0.996 -0.000 -0.000 -0.000  0.000
 -0.000  0.991 -0.000  0.000  0.000
 -0.000 -0.000  0.991 -0.000  0.000
 -0.000  0.000 -0.000  0.997 -0.000
  0.000  0.000  0.000 -0.000  0.991
   spin  2
    eigenvalues: 
  0.028  0.028  0.028  0.096  0.096
    eigenvectors:
  0.000  0.000  0.000  1.000  0.000
  0.489  0.500  0.011  0.000  0.000
  0.489  0.500  0.011  0.000  0.000
  0.000  0.000  0.000  0.000  1.000
  0.022  0.000  0.978  0.000  0.000
    occupations:
  0.096  0.000  0.000 -0.000  0.000
  0.000  0.028 -0.000  0.000  0.000
  0.000 -0.000  0.028 -0.000  0.000
 -0.000  0.000 -0.000  0.096 -0.000
  0.000  0.000  0.000 -0.000  0.028
atomic mag. moment =   4.69125
atom   11   Tr[ns(na)] (up, down, total) =   0.27478  4.96603  5.24081
   spin  1
    eigenvalues: 
  0.028  0.028  0.028  0.096  0.096
    eigenvectors:
  0.000  0.000  0.000  1.000  0.000
  0.500  0.499  0.001  0.000  0.000
  0.500  0.499  0.001  0.000  0.000
  0.000  0.000  0.000  0.000  1.000
  0.000  0.002  0.998  0.000  0.000
    occupations:
  0.096 -0.000  0.000 -0.000  0.000
 -0.000  0.028 -0.000 -0.000  0.000
  0.000 -0.000  0.028 -0.000 -0.000
 -0.000 -0.000 -0.000  0.096 -0.000
  0.000  0.000 -0.000 -0.000  0.028
   spin  2
    eigenvalues: 
  0.991  0.991  0.991  0.996  0.997
    eigenvectors:
  0.000  0.000  0.000  1.000  0.000
  0.499  0.500  0.001  0.000  0.000
  0.499  0.500  0.001  0.000  0.000
  0.000  0.000  0.000  0.000  1.000
  0.002  0.000  0.998  0.000  0.000
    occupations:
  0.996  0.000 -0.000 -0.000  0.000
  0.000  0.991  0.000 -0.000  0.000
 -0.000  0.000  0.991 -0.000 -0.000
 -0.000 -0.000 -0.000  0.997 -0.000
  0.000  0.000 -0.000 -0.000  0.991
atomic mag. moment =  -4.69124
atom   12   Tr[ns(na)] (up, down, total) =   0.27478  4.96603  5.24081
   spin  1
    eigenvalues: 
  0.028  0.028  0.028  0.096  0.096
    eigenvectors:
  0.000  0.000  0.000  1.000  0.000
  0.500  0.499  0.001  0.000  0.000
  0.500  0.499  0.001  0.000  0.000
  0.000  0.000  0.000  0.000  1.000
  0.000  0.002  0.998  0.000  0.000
    occupations:
  0.096 -0.000  0.000 -0.000  0.000
 -0.000  0.028 -0.000 -0.000  0.000
  0.000 -0.000  0.028 -0.000 -0.000
 -0.000 -0.000 -0.000  0.096 -0.000
  0.000  0.000 -0.000 -0.000  0.028
   spin  2
    eigenvalues: 
  0.991  0.991  0.991  0.996  0.997
    eigenvectors:
  0.000  0.000  0.000  1.000  0.000
  0.499  0.500  0.001  0.000  0.000
  0.499  0.500  0.001  0.000  0.000
  0.000  0.000  0.000  0.000  1.000
  0.002  0.000  0.998  0.000  0.000
    occupations:
  0.996  0.000 -0.000 -0.000  0.000
  0.000  0.991  0.000 -0.000  0.000
 -0.000  0.000  0.991 -0.000 -0.000
 -0.000 -0.000 -0.000  0.997 -0.000
  0.000  0.000 -0.000 -0.000  0.991
atomic mag. moment =  -4.69124
atom   13   Tr[ns(na)] (up, down, total) =   4.96621  0.27496  5.24117
   spin  1
    eigenvalues: 
  0.991  0.991  0.991  0.996  0.997
    eigenvectors:
  0.000  0.000  0.000  1.000  0.000
  0.498  0.500  0.002  0.000  0.000
  0.498  0.500  0.002  0.000  0.000
  0.000  0.000  0.000  0.000  1.000
  0.004  0.000  0.996  0.000  0.000
    occupations:
  0.996 -0.000 -0.000 -0.000  0.000
 -0.000  0.991 -0.000  0.000  0.000
 -0.000 -0.000  0.991 -0.000  0.000
 -0.000  0.000 -0.000  0.997 -0.000
  0.000  0.000  0.000 -0.000  0.991
   spin  2
    eigenvalues: 
  0.028  0.028  0.028  0.096  0.096
    eigenvectors:
  0.000  0.000  0.000  1.000  0.000
  0.489  0.500  0.011  0.000  0.000
  0.489  0.500  0.011  0.000  0.000
  0.000  0.000  0.000  0.000  1.000
  0.022  0.000  0.978  0.000  0.000
    occupations:
  0.096  0.000  0.000 -0.000  0.000
  0.000  0.028 -0.000  0.000  0.000
  0.000 -0.000  0.028 -0.000  0.000
 -0.000  0.000 -0.000  0.096 -0.000
  0.000  0.000  0.000 -0.000  0.028
atomic mag. moment =   4.69125
atom   14   Tr[ns(na)] (up, down, total) =   4.96621  0.27496  5.24117
   spin  1
    eigenvalues: 
  0.991  0.991  0.991  0.996  0.997
    eigenvectors:
  0.000  0.000  0.000  1.000  0.000
  0.498  0.500  0.002  0.000  0.000
  0.498  0.500  0.002  0.000  0.000
  0.000  0.000  0.000  0.000  1.000
  0.004  0.000  0.996  0.000  0.000
    occupations:
  0.996  0.000  0.000 -0.000  0.000
  0.000  0.991 -0.000 -0.000 -0.000
  0.000 -0.000  0.991  0.000 -0.000
 -0.000 -0.000  0.000  0.997 -0.000
  0.000 -0.000 -0.000 -0.000  0.991
   spin  2
    eigenvalues: 
  0.028  0.028  0.028  0.096  0.096
    eigenvectors:
  0.000  0.000  0.000  1.000  0.000
  0.489  0.500  0.011  0.000  0.000
  0.489  0.500  0.011  0.000  0.000
  0.000  0.000  0.000  0.000  1.000
  0.022  0.000  0.978  0.000  0.000
    occupations:
  0.096 -0.000 -0.000 -0.000  0.000
 -0.000  0.028 -0.000 -0.000 -0.000
 -0.000 -0.000  0.028  0.000 -0.000
 -0.000 -0.000  0.000  0.096 -0.000
  0.000 -0.000 -0.000 -0.000  0.028
atomic mag. moment =   4.69125
atom   15   Tr[ns(na)] (up, down, total) =   0.27478  4.96603  5.24081
   spin  1
    eigenvalues: 
  0.028  0.028  0.028  0.096  0.096
    eigenvectors:
  0.000  0.000  0.000  1.000  0.000
  0.500  0.499  0.001  0.000  0.000
  0.500  0.499  0.001  0.000  0.000
  0.000  0.000  0.000  0.000  1.000
  0.000  0.002  0.998  0.000  0.000
    occupations:
  0.096  0.000 -0.000 -0.000  0.000
  0.000  0.028 -0.000  0.000 -0.000
 -0.000 -0.000  0.028  0.000  0.000
 -0.000  0.000  0.000  0.096 -0.000
  0.000 -0.000  0.000 -0.000  0.028
   spin  2
    eigenvalues: 
  0.991  0.991  0.991  0.996  0.997
    eigenvectors:
  0.000  0.000  0.000  1.000  0.000
  0.499  0.500  0.001  0.000  0.000
  0.499  0.500  0.001  0.000  0.000
  0.000  0.000  0.000  0.000  1.000
  0.002  0.000  0.998  0.000  0.000
    occupations:
  0.996 -0.000  0.000 -0.000  0.000
 -0.000  0.991  0.000  0.000 -0.000
  0.000  0.000  0.991  0.000  0.000
 -0.000  0.000  0.000  0.997 -0.000
  0.000 -0.000  0.000 -0.000  0.991
atomic mag. moment =  -4.69124
atom   16   Tr[ns(na)] (up, down, total) =   0.27478  4.96603  5.24081
   spin  1
    eigenvalues: 
  0.028  0.028  0.028  0.096  0.096
    eigenvectors:
  0.000  0.000  0.000  1.000  0.000
  0.500  0.499  0.001  0.000  0.000
  0.500  0.499  0.001  0.000  0.000
  0.000  0.000  0.000  0.000  1.000
  0.000  0.002  0.998  0.000  0.000
    occupations:
  0.096  0.000 -0.000 -0.000  0.000
  0.000  0.028 -0.000  0.000 -0.000
 -0.000 -0.000  0.028  0.000  0.000
 -0.000  0.000  0.000  0.096 -0.000
  0.000 -0.000  0.000 -0.000  0.028
   spin  2
    eigenvalues: 
  0.991  0.991  0.991  0.996  0.997
    eigenvectors:
  0.000  0.000  0.000  1.000  0.000
  0.499  0.500  0.001  0.000  0.000
  0.499  0.500  0.001  0.000  0.000
  0.000  0.000  0.000  0.000  1.000
  0.002  0.000  0.998  0.000  0.000
    occupations:
  0.996 -0.000  0.000 -0.000  0.000
 -0.000  0.991  0.000  0.000 -0.000
  0.000  0.000  0.991  0.000  0.000
 -0.000  0.000  0.000  0.997 -0.000
  0.000 -0.000  0.000 -0.000  0.991
atomic mag. moment =  -4.69124
N of occupied +U levels =   41.927910
 --- exit write_ns ---

     negative rho (up, down):  1.663E-01 1.663E-01
 --- in v_hubbard ---
Hubbard energy    0.3469
 -------

     total cpu time spent up to now is      521.5 secs

     total energy              =   -4245.08733690 Ry
     estimated scf accuracy    <      30.59845164 Ry

     total magnetization       =     0.00 Bohr mag/cell
     absolute magnetization    =    40.40 Bohr mag/cell

     iteration #  2     ecut=    35.00 Ry     beta= 0.40
     CG style diagonalization
     ethr =  7.81E-03,  avg # of iterations =  3.5
 --- enter write_ns ---
 LDA+U parameters:
U( 3)     =  4.10000000
U( 4)     =  4.10000000
atom    9   Tr[ns(na)] (up, down, total) =   4.99055  0.64663  5.63717
   spin  1
    eigenvalues: 
  0.997  0.997  0.999  0.999  0.999
    eigenvectors:
  0.000  1.000  0.000  0.000  0.000
  0.000  0.000  0.500  0.500  0.000
  0.000  0.000  0.500  0.500  0.000
  1.000  0.000  0.000  0.000  0.000
  0.000  0.000  0.000  0.000  1.000
    occupations:
  0.997 -0.000 -0.000 -0.000 -0.000
 -0.000  0.999 -0.000 -0.000  0.000
 -0.000 -0.000  0.999  0.000  0.000
 -0.000 -0.000  0.000  0.997 -0.000
 -0.000  0.000  0.000 -0.000  0.999
   spin  2
    eigenvalues: 
  0.079  0.080  0.086  0.199  0.203
    eigenvectors:
  0.000  0.000  0.000  0.000  1.000
  0.500  0.500  0.000  0.000  0.000
  0.500  0.500  0.000  0.000  0.000
  0.000  0.000  0.000  1.000  0.000
  0.000  0.000  1.000  0.000  0.000
    occupations:
  0.203 -0.000 -0.000 -0.000 -0.000
 -0.000  0.079  0.000 -0.000  0.000
 -0.000  0.000  0.079  0.000  0.000
 -0.000 -0.000  0.000  0.199 -0.000
 -0.000  0.000  0.000 -0.000  0.086
atomic mag. moment =   4.34392
atom   10   Tr[ns(na)] (up, down, total) =   4.99055  0.64663  5.63717
   spin  1
    eigenvalues: 
  0.997  0.997  0.999  0.999  0.999
    eigenvectors:
  0.000  1.000  0.000  0.000  0.000
  0.000  0.000  0.500  0.500  0.000
  0.000  0.000  0.500  0.500  0.000
  1.000  0.000  0.000  0.000  0.000
  0.000  0.000  0.000  0.000  1.000
    occupations:
  0.997  0.000  0.000 -0.000 -0.000
  0.000  0.999 -0.000  0.000 -0.000
  0.000 -0.000  0.999 -0.000 -0.000
 -0.000  0.000 -0.000  0.997 -0.000
 -0.000 -0.000 -0.000 -0.000  0.999
   spin  2
    eigenvalues: 
  0.079  0.080  0.086  0.199  0.203
    eigenvectors:
  0.000  0.000  0.000  0.000  1.000
  0.500  0.500  0.000  0.000  0.000
  0.500  0.500  0.000  0.000  0.000
  0.000  0.000  0.000  1.000  0.000
  0.000  0.000  1.000  0.000  0.000
    occupations:
  0.203  0.000  0.000 -0.000 -0.000
  0.000  0.079  0.000  0.000 -0.000
  0.000  0.000  0.079 -0.000 -0.000
 -0.000  0.000 -0.000  0.199 -0.000
 -0.000 -0.000 -0.000 -0.000  0.086
atomic mag. moment =   4.34392
atom   11   Tr[ns(na)] (up, down, total) =   0.64685  4.99063  5.63748
   spin  1
    eigenvalues: 
  0.079  0.080  0.086  0.199  0.203
    eigenvectors:
  0.000  0.000  0.000  0.000  1.000
  0.500  0.499  0.001  0.000  0.000
  0.500  0.499  0.001  0.000  0.000
  0.000  0.000  0.000  1.000  0.000
  0.000  0.001  0.999  0.000  0.000
    occupations:
  0.203 -0.000  0.000 -0.000  0.000
 -0.000  0.079 -0.001  0.000  0.000
  0.000 -0.001  0.079  0.000 -0.000
 -0.000  0.000  0.000  0.199 -0.000
  0.000  0.000 -0.000 -0.000  0.086
   spin  2
    eigenvalues: 
  0.997  0.997  0.999  0.999  0.999
    eigenvectors:
  0.000  1.000  0.000  0.000  0.000
  0.000  0.000  0.500  0.175  0.325
  0.000  0.000  0.500  0.175  0.325
  1.000  0.000  0.000  0.000  0.000
  0.000  0.000  0.000  0.650  0.350
    occupations:
  0.997  0.000 -0.000 -0.000 -0.000
  0.000  0.999 -0.000  0.000  0.000
 -0.000 -0.000  0.999  0.000 -0.000
 -0.000  0.000  0.000  0.997 -0.000
 -0.000  0.000 -0.000 -0.000  0.999
atomic mag. moment =  -4.34379
atom   12   Tr[ns(na)] (up, down, total) =   0.64685  4.99063  5.63748
   spin  1
    eigenvalues: 
  0.079  0.080  0.086  0.199  0.203
    eigenvectors:
  0.000  0.000  0.000  0.000  1.000
  0.500  0.499  0.001  0.000  0.000
  0.500  0.499  0.001  0.000  0.000
  0.000  0.000  0.000  1.000  0.000
  0.000  0.001  0.999  0.000  0.000
    occupations:
  0.203 -0.000  0.000 -0.000  0.000
 -0.000  0.079 -0.001  0.000  0.000
  0.000 -0.001  0.079  0.000 -0.000
 -0.000  0.000  0.000  0.199 -0.000
  0.000  0.000 -0.000 -0.000  0.086
   spin  2
    eigenvalues: 
  0.997  0.997  0.999  0.999  0.999
    eigenvectors:
  0.000  1.000  0.000  0.000  0.000
  0.000  0.000  0.500  0.175  0.325
  0.000  0.000  0.500  0.175  0.325
  1.000  0.000  0.000  0.000  0.000
  0.000  0.000  0.000  0.650  0.350
    occupations:
  0.997  0.000 -0.000 -0.000 -0.000
  0.000  0.999 -0.000  0.000  0.000
 -0.000 -0.000  0.999  0.000 -0.000
 -0.000  0.000  0.000  0.997 -0.000
 -0.000  0.000 -0.000 -0.000  0.999
atomic mag. moment =  -4.34379
atom   13   Tr[ns(na)] (up, down, total) =   4.99055  0.64663  5.63717
   spin  1
    eigenvalues: 
  0.997  0.997  0.999  0.999  0.999
    eigenvectors:
  0.000  1.000  0.000  0.000  0.000
  0.000  0.000  0.500  0.500  0.000
  0.000  0.000  0.500  0.500  0.000
  1.000  0.000  0.000  0.000  0.000
  0.000  0.000  0.000  0.000  1.000
    occupations:
  0.997  0.000  0.000 -0.000 -0.000
  0.000  0.999 -0.000  0.000 -0.000
  0.000 -0.000  0.999 -0.000 -0.000
 -0.000  0.000 -0.000  0.997 -0.000
 -0.000 -0.000 -0.000 -0.000  0.999
   spin  2
    eigenvalues: 
  0.079  0.080  0.086  0.199  0.203
    eigenvectors:
  0.000  0.000  0.000  0.000  1.000
  0.500  0.500  0.000  0.000  0.000
  0.500  0.500  0.000  0.000  0.000
  0.000  0.000  0.000  1.000  0.000
  0.000  0.000  1.000  0.000  0.000
    occupations:
  0.203  0.000  0.000 -0.000 -0.000
  0.000  0.079  0.000  0.000 -0.000
  0.000  0.000  0.079 -0.000 -0.000
 -0.000  0.000 -0.000  0.199 -0.000
 -0.000 -0.000 -0.000 -0.000  0.086
atomic mag. moment =   4.34392
atom   14   Tr[ns(na)] (up, down, total) =   4.99055  0.64663  5.63717
   spin  1
    eigenvalues: 
  0.997  0.997  0.999  0.999  0.999
    eigenvectors:
  0.000  1.000  0.000  0.000  0.000
  0.000  0.000  0.500  0.500  0.000
  0.000  0.000  0.500  0.500  0.000
  1.000  0.000  0.000  0.000  0.000
  0.000  0.000  0.000  0.000  1.000
    occupations:
  0.997 -0.000 -0.000 -0.000 -0.000
 -0.000  0.999 -0.000 -0.000  0.000
 -0.000 -0.000  0.999  0.000  0.000
 -0.000 -0.000  0.000  0.997 -0.000
 -0.000  0.000  0.000 -0.000  0.999
   spin  2
    eigenvalues: 
  0.079  0.080  0.086  0.199  0.203
    eigenvectors:
  0.000  0.000  0.000  0.000  1.000
  0.500  0.500  0.000  0.000  0.000
  0.500  0.500  0.000  0.000  0.000
  0.000  0.000  0.000  1.000  0.000
  0.000  0.000  1.000  0.000  0.000
    occupations:
  0.203 -0.000 -0.000 -0.000 -0.000
 -0.000  0.079  0.000 -0.000  0.000
 -0.000  0.000  0.079  0.000  0.000
 -0.000 -0.000  0.000  0.199 -0.000
 -0.000  0.000  0.000 -0.000  0.086
atomic mag. moment =   4.34392
atom   15   Tr[ns(na)] (up, down, total) =   0.64685  4.99063  5.63748
   spin  1
    eigenvalues: 
  0.079  0.080  0.086  0.199  0.203
    eigenvectors:
  0.000  0.000  0.000  0.000  1.000
  0.500  0.499  0.001  0.000  0.000
  0.500  0.499  0.001  0.000  0.000
  0.000  0.000  0.000  1.000  0.000
  0.000  0.001  0.999  0.000  0.000
    occupations:
  0.203  0.000 -0.000 -0.000  0.000
  0.000  0.079 -0.001 -0.000 -0.000
 -0.000 -0.001  0.079 -0.000  0.000
 -0.000 -0.000 -0.000  0.199 -0.000
  0.000 -0.000  0.000 -0.000  0.086
   spin  2
    eigenvalues: 
  0.997  0.997  0.999  0.999  0.999
    eigenvectors:
  0.000  1.000  0.000  0.000  0.000
  0.000  0.000  0.500  0.175  0.325
  0.000  0.000  0.500  0.175  0.325
  1.000  0.000  0.000  0.000  0.000
  0.000  0.000  0.000  0.650  0.350
    occupations:
  0.997 -0.000  0.000 -0.000 -0.000
 -0.000  0.999 -0.000 -0.000 -0.000
  0.000 -0.000  0.999 -0.000  0.000
 -0.000 -0.000 -0.000  0.997 -0.000
 -0.000 -0.000  0.000 -0.000  0.999
atomic mag. moment =  -4.34379
atom   16   Tr[ns(na)] (up, down, total) =   0.64685  4.99063  5.63748
   spin  1
    eigenvalues: 
  0.079  0.080  0.086  0.199  0.203
    eigenvectors:
  0.000  0.000  0.000  0.000  1.000
  0.500  0.499  0.001  0.000  0.000
  0.500  0.499  0.001  0.000  0.000
  0.000  0.000  0.000  1.000  0.000
  0.000  0.001  0.999  0.000  0.000
    occupations:
  0.203  0.000 -0.000 -0.000  0.000
  0.000  0.079 -0.001 -0.000 -0.000
 -0.000 -0.001  0.079 -0.000  0.000
 -0.000 -0.000 -0.000  0.199 -0.000
  0.000 -0.000  0.000 -0.000  0.086
   spin  2
    eigenvalues: 
  0.997  0.997  0.999  0.999  0.999
    eigenvectors:
  0.000  1.000  0.000  0.000  0.000
  0.000  0.000  0.500  0.175  0.325
  0.000  0.000  0.500  0.175  0.325
  1.000  0.000  0.000  0.000  0.000
  0.000  0.000  0.000  0.650  0.350
    occupations:
  0.997 -0.000  0.000 -0.000 -0.000
 -0.000  0.999 -0.000 -0.000 -0.000
  0.000 -0.000  0.999 -0.000  0.000
 -0.000 -0.000 -0.000  0.997 -0.000
 -0.000 -0.000  0.000 -0.000  0.999
atomic mag. moment =  -4.34379
N of occupied +U levels =   45.098604
 --- exit write_ns ---

     negative rho (up, down):  1.664E-01 1.664E-01
 --- in v_hubbard ---
Hubbard energy    0.4722
 -------

     total cpu time spent up to now is     1015.1 secs

     total energy              =   -4250.79883919 Ry
     estimated scf accuracy    <       7.83708214 Ry

     total magnetization       =    -0.00 Bohr mag/cell
     absolute magnetization    =    38.51 Bohr mag/cell

     iteration #  3     ecut=    35.00 Ry     beta= 0.40
     CG style diagonalization
     ethr =  2.00E-03,  avg # of iterations =  3.3
 --- enter write_ns ---
 LDA+U parameters:
U( 3)     =  4.10000000
U( 4)     =  4.10000000
atom    9   Tr[ns(na)] (up, down, total) =   4.98948  0.67395  5.66343
   spin  1
    eigenvalues: 
  0.998  0.998  0.998  0.998  0.998
    eigenvectors:
  0.000  1.000  0.000  0.000  0.000
  0.000  0.000  0.000  0.500  0.500
  0.000  0.000  0.000  0.500  0.500
  1.000  0.000  0.000  0.000  0.000
  0.000  0.000  1.000  0.000  0.000
    occupations:
  0.998 -0.000 -0.000 -0.000 -0.000
 -0.000  0.998 -0.000 -0.000 -0.000
 -0.000 -0.000  0.998  0.000 -0.000
 -0.000 -0.000  0.000  0.998 -0.000
 -0.000 -0.000 -0.000 -0.000  0.998
   spin  2
    eigenvalues: 
  0.075  0.075  0.080  0.217  0.228
    eigenvectors:
  0.000  0.000  0.000  1.000  0.000
  0.500  0.500  0.000  0.000  0.000
  0.500  0.500  0.000  0.000  0.000
  0.000  0.000  0.000  0.000  1.000
  0.000  0.000  1.000  0.000  0.000
    occupations:
  0.217 -0.000 -0.000 -0.000 -0.000
 -0.000  0.075  0.000 -0.000 -0.000
 -0.000  0.000  0.075  0.000 -0.000
 -0.000 -0.000  0.000  0.228 -0.000
 -0.000 -0.000 -0.000 -0.000  0.080
atomic mag. moment =   4.31553
atom   10   Tr[ns(na)] (up, down, total) =   4.98948  0.67395  5.66343
   spin  1
    eigenvalues: 
  0.998  0.998  0.998  0.998  0.998
    eigenvectors:
  0.000  1.000  0.000  0.000  0.000
  0.000  0.000  0.000  0.500  0.500
  0.000  0.000  0.000  0.500  0.500
  1.000  0.000  0.000  0.000  0.000
  0.000  0.000  1.000  0.000  0.000
    occupations:
  0.998  0.000  0.000 -0.000 -0.000
  0.000  0.998 -0.000  0.000  0.000
  0.000 -0.000  0.998 -0.000  0.000
 -0.000  0.000 -0.000  0.998 -0.000
 -0.000  0.000  0.000 -0.000  0.998
   spin  2
    eigenvalues: 
  0.075  0.075  0.080  0.217  0.228
    eigenvectors:
  0.000  0.000  0.000  1.000  0.000
  0.500  0.500  0.000  0.000  0.000
  0.500  0.500  0.000  0.000  0.000
  0.000  0.000  0.000  0.000  1.000
  0.000  0.000  1.000  0.000  0.000
    occupations:
  0.217  0.000  0.000 -0.000 -0.000
  0.000  0.075  0.000  0.000  0.000
  0.000  0.000  0.075 -0.000  0.000
 -0.000  0.000 -0.000  0.228 -0.000
 -0.000  0.000  0.000 -0.000  0.080
atomic mag. moment =   4.31553
atom   11   Tr[ns(na)] (up, down, total) =   0.67363  4.98949  5.66313
   spin  1
    eigenvalues: 
  0.074  0.075  0.079  0.217  0.228
    eigenvectors:
  0.000  0.000  0.000  1.000  0.000
  0.500  0.500  0.000  0.000  0.000
  0.500  0.500  0.000  0.000  0.000
  0.000  0.000  0.000  0.000  1.000
  0.000  0.001  0.999  0.000  0.000
    occupations:
  0.217  0.000 -0.000 -0.000  0.000
  0.000  0.075 -0.000  0.000  0.000
 -0.000 -0.000  0.075  0.000 -0.000
 -0.000  0.000  0.000  0.228 -0.000
  0.000  0.000 -0.000 -0.000  0.079
   spin  2
    eigenvalues: 
  0.998  0.998  0.998  0.998  0.998
    eigenvectors:
  0.000  1.000  0.000  0.000  0.000
  0.000  0.000  0.000  0.500  0.500
  0.000  0.000  0.000  0.500  0.500
  1.000  0.000  0.000  0.000  0.000
  0.000  0.000  0.999  0.000  0.001
    occupations:
  0.998  0.000 -0.000 -0.000 -0.000
  0.000  0.998 -0.000  0.000  0.000
 -0.000 -0.000  0.998  0.000 -0.000
 -0.000  0.000  0.000  0.998 -0.000
 -0.000  0.000 -0.000 -0.000  0.998
atomic mag. moment =  -4.31586
atom   12   Tr[ns(na)] (up, down, total) =   0.67363  4.98949  5.66313
   spin  1
    eigenvalues: 
  0.074  0.075  0.079  0.217  0.228
    eigenvectors:
  0.000  0.000  0.000  1.000  0.000
  0.500  0.500  0.000  0.000  0.000
  0.500  0.500  0.000  0.000  0.000
  0.000  0.000  0.000  0.000  1.000
  0.000  0.001  0.999  0.000  0.000
    occupations:
  0.217  0.000 -0.000 -0.000  0.000
  0.000  0.075 -0.000  0.000  0.000
 -0.000 -0.000  0.075  0.000 -0.000
 -0.000  0.000  0.000  0.228 -0.000
  0.000  0.000 -0.000 -0.000  0.079
   spin  2
    eigenvalues: 
  0.998  0.998  0.998  0.998  0.998
    eigenvectors:
  0.000  1.000  0.000  0.000  0.000
  0.000  0.000  0.000  0.500  0.500
  0.000  0.000  0.000  0.500  0.500
  1.000  0.000  0.000  0.000  0.000
  0.000  0.000  0.999  0.000  0.001
    occupations:
  0.998  0.000 -0.000 -0.000 -0.000
  0.000  0.998 -0.000  0.000  0.000
 -0.000 -0.000  0.998  0.000 -0.000
 -0.000  0.000  0.000  0.998 -0.000
 -0.000  0.000 -0.000 -0.000  0.998
atomic mag. moment =  -4.31586
atom   13   Tr[ns(na)] (up, down, total) =   4.98948  0.67395  5.66343
   spin  1
    eigenvalues: 
  0.998  0.998  0.998  0.998  0.998
    eigenvectors:
  0.000  1.000  0.000  0.000  0.000
  0.000  0.000  0.000  0.500  0.500
  0.000  0.000  0.000  0.500  0.500
  1.000  0.000  0.000  0.000  0.000
  0.000  0.000  1.000  0.000  0.000
    occupations:
  0.998  0.000  0.000 -0.000 -0.000
  0.000  0.998 -0.000  0.000  0.000
  0.000 -0.000  0.998 -0.000  0.000
 -0.000  0.000 -0.000  0.998 -0.000
 -0.000  0.000  0.000 -0.000  0.998
   spin  2
    eigenvalues: 
  0.075  0.075  0.080  0.217  0.228
    eigenvectors:
  0.000  0.000  0.000  1.000  0.000
  0.500  0.500  0.000  0.000  0.000
  0.500  0.500  0.000  0.000  0.000
  0.000  0.000  0.000  0.000  1.000
  0.000  0.000  1.000  0.000  0.000
    occupations:
  0.217  0.000  0.000 -0.000 -0.000
  0.000  0.075  0.000  0.000  0.000
  0.000  0.000  0.075 -0.000  0.000
 -0.000  0.000 -0.000  0.228 -0.000
 -0.000  0.000  0.000 -0.000  0.080
atomic mag. moment =   4.31553
atom   14   Tr[ns(na)] (up, down, total) =   4.98948  0.67395  5.66343
   spin  1
    eigenvalues: 
  0.998  0.998  0.998  0.998  0.998
    eigenvectors:
  0.000  1.000  0.000  0.000  0.000
  0.000  0.000  0.000  0.500  0.500
  0.000  0.000  0.000  0.500  0.500
  1.000  0.000  0.000  0.000  0.000
  0.000  0.000  1.000  0.000  0.000
    occupations:
  0.998 -0.000 -0.000 -0.000 -0.000
 -0.000  0.998 -0.000 -0.000 -0.000
 -0.000 -0.000  0.998  0.000 -0.000
 -0.000 -0.000  0.000  0.998 -0.000
 -0.000 -0.000 -0.000 -0.000  0.998
   spin  2
    eigenvalues: 
  0.075  0.075  0.080  0.217  0.228
    eigenvectors:
  0.000  0.000  0.000  1.000  0.000
  0.500  0.500  0.000  0.000  0.000
  0.500  0.500  0.000  0.000  0.000
  0.000  0.000  0.000  0.000  1.000
  0.000  0.000  1.000  0.000  0.000
    occupations:
  0.217 -0.000 -0.000 -0.000 -0.000
 -0.000  0.075  0.000 -0.000 -0.000
 -0.000  0.000  0.075  0.000 -0.000
 -0.000 -0.000  0.000  0.228 -0.000
 -0.000 -0.000 -0.000 -0.000  0.080
atomic mag. moment =   4.31553
atom   15   Tr[ns(na)] (up, down, total) =   0.67363  4.98949  5.66313
   spin  1
    eigenvalues: 
  0.074  0.075  0.079  0.217  0.228
    eigenvectors:
  0.000  0.000  0.000  1.000  0.000
  0.500  0.500  0.000  0.000  0.000
  0.500  0.500  0.000  0.000  0.000
  0.000  0.000  0.000  0.000  1.000
  0.000  0.001  0.999  0.000  0.000
    occupations:
  0.217 -0.000  0.000 -0.000  0.000
 -0.000  0.075 -0.000 -0.000 -0.000
  0.000 -0.000  0.075 -0.000  0.000
 -0.000 -0.000 -0.000  0.228 -0.000
  0.000 -0.000  0.000 -0.000  0.079
   spin  2
    eigenvalues: 
  0.998  0.998  0.998  0.998  0.998
    eigenvectors:
  0.000  1.000  0.000  0.000  0.000
  0.000  0.000  0.000  0.500  0.500
  0.000  0.000  0.000  0.500  0.500
  1.000  0.000  0.000  0.000  0.000
  0.000  0.000  0.999  0.000  0.001
    occupations:
  0.998 -0.000  0.000 -0.000 -0.000
 -0.000  0.998 -0.000 -0.000 -0.000
  0.000 -0.000  0.998 -0.000  0.000
 -0.000 -0.000 -0.000  0.998 -0.000
 -0.000 -0.000  0.000 -0.000  0.998
atomic mag. moment =  -4.31586
atom   16   Tr[ns(na)] (up, down, total) =   0.67363  4.98949  5.66313
   spin  1
    eigenvalues: 
  0.074  0.075  0.079  0.217  0.228
    eigenvectors:
  0.000  0.000  0.000  1.000  0.000
  0.500  0.500  0.000  0.000  0.000
  0.500  0.500  0.000  0.000  0.000
  0.000  0.000  0.000  0.000  1.000
  0.000  0.001  0.999  0.000  0.000
    occupations:
  0.217 -0.000  0.000 -0.000  0.000
 -0.000  0.075 -0.000 -0.000 -0.000
  0.000 -0.000  0.075 -0.000  0.000
 -0.000 -0.000 -0.000  0.228 -0.000
  0.000 -0.000  0.000 -0.000  0.079
   spin  2
    eigenvalues: 
  0.998  0.998  0.998  0.998  0.998
    eigenvectors:
  0.000  1.000  0.000  0.000  0.000
  0.000  0.000  0.000  0.500  0.500
  0.000  0.000  0.000  0.500  0.500
  1.000  0.000  0.000  0.000  0.000
  0.000  0.000  0.999  0.000  0.001
    occupations:
  0.998 -0.000  0.000 -0.000 -0.000
 -0.000  0.998 -0.000 -0.000 -0.000
  0.000 -0.000  0.998 -0.000  0.000
 -0.000 -0.000 -0.000  0.998 -0.000
 -0.000 -0.000  0.000 -0.000  0.998
atomic mag. moment =  -4.31586
N of occupied +U levels =   45.306242
 --- exit write_ns ---

     negative rho (up, down):  1.632E-01 1.631E-01
 --- in v_hubbard ---
Hubbard energy    0.6621
 -------

     total cpu time spent up to now is     1481.8 secs

     total energy              =   -4252.96790897 Ry
     estimated scf accuracy    <       2.52616308 Ry

     total magnetization       =     0.00 Bohr mag/cell
     absolute magnetization    =    37.87 Bohr mag/cell

     iteration #  4     ecut=    35.00 Ry     beta= 0.40
     CG style diagonalization
     ethr =  6.44E-04,  avg # of iterations =  3.3
 --- enter write_ns ---
 LDA+U parameters:
U( 3)     =  4.10000000
U( 4)     =  4.10000000
atom    9   Tr[ns(na)] (up, down, total) =   4.98159  0.99982  5.98141
   spin  1
    eigenvalues: 
  0.994  0.996  0.997  0.997  0.997
    eigenvectors:
  0.000  1.000  0.000  0.000  0.000
  0.000  0.000  0.000  0.500  0.500
  0.000  0.000  0.000  0.500  0.500
  1.000  0.000  0.000  0.000  0.000
  0.000  0.000  0.999  0.001  0.000
    occupations:
  0.996  0.000  0.000 -0.000  0.000
  0.000  0.997 -0.000 -0.000  0.000
  0.000 -0.000  0.997  0.000  0.000
 -0.000 -0.000  0.000  0.994 -0.000
  0.000  0.000  0.000 -0.000  0.997
   spin  2
    eigenvalues: 
  0.120  0.121  0.125  0.291  0.343
    eigenvectors:
  0.000  0.000  0.000  1.000  0.000
  0.500  0.500  0.000  0.000  0.000
  0.500  0.500  0.000  0.000  0.000
  0.000  0.000  0.000  0.000  1.000
  0.000  0.000  1.000  0.000  0.000
    occupations:
  0.291 -0.000 -0.000 -0.000 -0.000
 -0.000  0.120  0.000 -0.000  0.000
 -0.000  0.000  0.120  0.000  0.000
 -0.000 -0.000  0.000  0.343 -0.000
 -0.000  0.000  0.000 -0.000  0.125
atomic mag. moment =   3.98177
atom   10   Tr[ns(na)] (up, down, total) =   4.98159  0.99982  5.98141
   spin  1
    eigenvalues: 
  0.994  0.996  0.997  0.997  0.997
    eigenvectors:
  0.000  1.000  0.000  0.000  0.000
  0.000  0.000  0.000  0.500  0.500
  0.000  0.000  0.000  0.500  0.500
  1.000  0.000  0.000  0.000  0.000
  0.000  0.000  0.999  0.001  0.000
    occupations:
  0.996 -0.000 -0.000 -0.000  0.000
 -0.000  0.997 -0.000  0.000 -0.000
 -0.000 -0.000  0.997 -0.000 -0.000
 -0.000  0.000 -0.000  0.994 -0.000
  0.000 -0.000 -0.000 -0.000  0.997
   spin  2
    eigenvalues: 
  0.120  0.121  0.125  0.291  0.343
    eigenvectors:
  0.000  0.000  0.000  1.000  0.000
  0.500  0.500  0.000  0.000  0.000
  0.500  0.500  0.000  0.000  0.000
  0.000  0.000  0.000  0.000  1.000
  0.000  0.000  1.000  0.000  0.000
    occupations:
  0.291  0.000  0.000 -0.000 -0.000
  0.000  0.120  0.000  0.000 -0.000
  0.000  0.000  0.120 -0.000 -0.000
 -0.000  0.000 -0.000  0.343 -0.000
 -0.000 -0.000 -0.000 -0.000  0.125
atomic mag. moment =   3.98177
atom   11   Tr[ns(na)] (up, down, total) =   0.99936  4.98167  5.98103
   spin  1
    eigenvalues: 
  0.120  0.121  0.125  0.290  0.344
    eigenvectors:
  0.000  0.000  0.000  1.000  0.000
  0.500  0.498  0.002  0.000  0.000
  0.500  0.498  0.002  0.000  0.000
  0.000  0.000  0.000  0.000  1.000
  0.000  0.004  0.996  0.000  0.000
    occupations:
  0.290 -0.000  0.000 -0.000 -0.000
 -0.000  0.120 -0.001  0.000  0.000
  0.000 -0.001  0.120  0.000 -0.000
 -0.000  0.000  0.000  0.344 -0.000
 -0.000  0.000 -0.000 -0.000  0.125
   spin  2
    eigenvalues: 
  0.994  0.996  0.997  0.997  0.997
    eigenvectors:
  0.000  1.000  0.000  0.000  0.000
  0.000  0.000  0.000  0.500  0.500
  0.000  0.000  0.000  0.500  0.500
  1.000  0.000  0.000  0.000  0.000
  0.000  0.000  1.000  0.000  0.000
    occupations:
  0.996  0.000 -0.000 -0.000 -0.000
  0.000  0.997  0.000 -0.000  0.000
 -0.000  0.000  0.997 -0.000 -0.000
 -0.000 -0.000 -0.000  0.994 -0.000
 -0.000  0.000 -0.000 -0.000  0.997
atomic mag. moment =  -3.98231
atom   12   Tr[ns(na)] (up, down, total) =   0.99936  4.98167  5.98103
   spin  1
    eigenvalues: 
  0.120  0.121  0.125  0.290  0.344
    eigenvectors:
  0.000  0.000  0.000  1.000  0.000
  0.500  0.498  0.002  0.000  0.000
  0.500  0.498  0.002  0.000  0.000
  0.000  0.000  0.000  0.000  1.000
  0.000  0.004  0.996  0.000  0.000
    occupations:
  0.290 -0.000  0.000 -0.000 -0.000
 -0.000  0.120 -0.001  0.000  0.000
  0.000 -0.001  0.120  0.000 -0.000
 -0.000  0.000  0.000  0.344 -0.000
 -0.000  0.000 -0.000 -0.000  0.125
   spin  2
    eigenvalues: 
  0.994  0.996  0.997  0.997  0.997
    eigenvectors:
  0.000  1.000  0.000  0.000  0.000
  0.000  0.000  0.000  0.500  0.500
  0.000  0.000  0.000  0.500  0.500
  1.000  0.000  0.000  0.000  0.000
  0.000  0.000  1.000  0.000  0.000
    occupations:
  0.996  0.000 -0.000 -0.000 -0.000
  0.000  0.997  0.000 -0.000  0.000
 -0.000  0.000  0.997 -0.000 -0.000
 -0.000 -0.000 -0.000  0.994 -0.000
 -0.000  0.000 -0.000 -0.000  0.997
atomic mag. moment =  -3.98231
atom   13   Tr[ns(na)] (up, down, total) =   4.98159  0.99982  5.98141
   spin  1
    eigenvalues: 
  0.994  0.996  0.997  0.997  0.997
    eigenvectors:
  0.000  1.000  0.000  0.000  0.000
  0.000  0.000  0.000  0.500  0.500
  0.000  0.000  0.000  0.500  0.500
  1.000  0.000  0.000  0.000  0.000
  0.000  0.000  0.999  0.001  0.000
    occupations:
  0.996 -0.000 -0.000 -0.000  0.000
 -0.000  0.997 -0.000  0.000 -0.000
 -0.000 -0.000  0.997 -0.000 -0.000
 -0.000  0.000 -0.000  0.994 -0.000
  0.000 -0.000 -0.000 -0.000  0.997
   spin  2
    eigenvalues: 
  0.120  0.121  0.125  0.291  0.343
    eigenvectors:
  0.000  0.000  0.000  1.000  0.000
  0.500  0.500  0.000  0.000  0.000
  0.500  0.500  0.000  0.000  0.000
  0.000  0.000  0.000  0.000  1.000
  0.000  0.000  1.000  0.000  0.000
    occupations:
  0.291  0.000  0.000 -0.000 -0.000
  0.000  0.120  0.000  0.000 -0.000
  0.000  0.000  0.120 -0.000 -0.000
 -0.000  0.000 -0.000  0.343 -0.000
 -0.000 -0.000 -0.000 -0.000  0.125
atomic mag. moment =   3.98177
atom   14   Tr[ns(na)] (up, down, total) =   4.98159  0.99982  5.98141
   spin  1
    eigenvalues: 
  0.994  0.996  0.997  0.997  0.997
    eigenvectors:
  0.000  1.000  0.000  0.000  0.000
  0.000  0.000  0.000  0.500  0.500
  0.000  0.000  0.000  0.500  0.500
  1.000  0.000  0.000  0.000  0.000
  0.000  0.000  0.999  0.001  0.000
    occupations:
  0.996  0.000  0.000 -0.000  0.000
  0.000  0.997 -0.000 -0.000  0.000
  0.000 -0.000  0.997  0.000  0.000
 -0.000 -0.000  0.000  0.994 -0.000
  0.000  0.000  0.000 -0.000  0.997
   spin  2
    eigenvalues: 
  0.120  0.121  0.125  0.291  0.343
    eigenvectors:
  0.000  0.000  0.000  1.000  0.000
  0.500  0.500  0.000  0.000  0.000
  0.500  0.500  0.000  0.000  0.000
  0.000  0.000  0.000  0.000  1.000
  0.000  0.000  1.000  0.000  0.000
    occupations:
  0.291 -0.000 -0.000 -0.000 -0.000
 -0.000  0.120  0.000 -0.000  0.000
 -0.000  0.000  0.120  0.000  0.000
 -0.000 -0.000  0.000  0.343 -0.000
 -0.000  0.000  0.000 -0.000  0.125
atomic mag. moment =   3.98177
atom   15   Tr[ns(na)] (up, down, total) =   0.99936  4.98167  5.98103
   spin  1
    eigenvalues: 
  0.120  0.121  0.125  0.290  0.344
    eigenvectors:
  0.000  0.000  0.000  1.000  0.000
  0.500  0.498  0.002  0.000  0.000
  0.500  0.498  0.002  0.000  0.000
  0.000  0.000  0.000  0.000  1.000
  0.000  0.004  0.996  0.000  0.000
    occupations:
  0.290  0.000 -0.000 -0.000 -0.000
  0.000  0.120 -0.001 -0.000 -0.000
 -0.000 -0.001  0.120 -0.000  0.000
 -0.000 -0.000 -0.000  0.344 -0.000
 -0.000 -0.000  0.000 -0.000  0.125
   spin  2
    eigenvalues: 
  0.994  0.996  0.997  0.997  0.997
    eigenvectors:
  0.000  1.000  0.000  0.000  0.000
  0.000  0.000  0.000  0.500  0.500
  0.000  0.000  0.000  0.500  0.500
  1.000  0.000  0.000  0.000  0.000
  0.000  0.000  1.000  0.000  0.000
    occupations:
  0.996 -0.000  0.000 -0.000 -0.000
 -0.000  0.997  0.000  0.000 -0.000
  0.000  0.000  0.997  0.000  0.000
 -0.000  0.000  0.000  0.994 -0.000
 -0.000 -0.000  0.000 -0.000  0.997
atomic mag. moment =  -3.98231
atom   16   Tr[ns(na)] (up, down, total) =   0.99936  4.98167  5.98103
   spin  1
    eigenvalues: 
  0.120  0.121  0.125  0.290  0.344
    eigenvectors:
  0.000  0.000  0.000  1.000  0.000
  0.500  0.498  0.002  0.000  0.000
  0.500  0.498  0.002  0.000  0.000
  0.000  0.000  0.000  0.000  1.000
  0.000  0.004  0.996  0.000  0.000
    occupations:
  0.290  0.000 -0.000 -0.000 -0.000
  0.000  0.120 -0.001 -0.000 -0.000
 -0.000 -0.001  0.120 -0.000  0.000
 -0.000 -0.000 -0.000  0.344 -0.000
 -0.000 -0.000  0.000 -0.000  0.125
   spin  2
    eigenvalues: 
  0.994  0.996  0.997  0.997  0.997
    eigenvectors:
  0.000  1.000  0.000  0.000  0.000
  0.000  0.000  0.000  0.500  0.500
  0.000  0.000  0.000  0.500  0.500
  1.000  0.000  0.000  0.000  0.000
  0.000  0.000  1.000  0.000  0.000
    occupations:
  0.996 -0.000  0.000 -0.000 -0.000
 -0.000  0.997  0.000  0.000 -0.000
  0.000  0.000  0.997  0.000  0.000
 -0.000  0.000  0.000  0.994 -0.000
 -0.000 -0.000  0.000 -0.000  0.997
atomic mag. moment =  -3.98231
N of occupied +U levels =   47.849750
 --- exit write_ns ---

     negative rho (up, down):  1.643E-01 1.643E-01
 --- in v_hubbard ---
Hubbard energy    0.8842
 -------

     total cpu time spent up to now is     1964.7 secs

     total energy              =   -4253.26900931 Ry
     estimated scf accuracy    <       0.33648497 Ry

     total magnetization       =    -0.00 Bohr mag/cell
     absolute magnetization    =    35.93 Bohr mag/cell

     iteration #  5     ecut=    35.00 Ry     beta= 0.40
     CG style diagonalization
     c_bands:  4 eigenvalues not converged
     c_bands:  1 eigenvalues not converged
     c_bands:  2 eigenvalues not converged
     ethr =  8.58E-05,  avg # of iterations =  3.8
 --- enter write_ns ---
 LDA+U parameters:
U( 3)     =  4.10000000
U( 4)     =  4.10000000
atom    9   Tr[ns(na)] (up, down, total) =   4.95652  0.90935  5.86587
   spin  1
    eigenvalues: 
  0.987  0.990  0.993  0.993  0.993
    eigenvectors:
  1.000  0.000  0.000  0.000  0.000
  0.000  0.000  0.000  0.500  0.500
  0.000  0.000  0.000  0.500  0.500
  0.000  1.000  0.000  0.000  0.000
  0.000  0.000  1.000  0.000  0.000
    occupations:
  0.987  0.000  0.000 -0.000  0.000
  0.000  0.993 -0.000 -0.000 -0.000
  0.000 -0.000  0.993  0.000 -0.000
 -0.000 -0.000  0.000  0.990 -0.000
  0.000 -0.000 -0.000 -0.000  0.993
   spin  2
    eigenvalues: 
  0.094  0.095  0.096  0.287  0.337
    eigenvectors:
  0.000  0.000  0.000  1.000  0.000
  0.000  0.500  0.500  0.000  0.000
  0.000  0.500  0.500  0.000  0.000
  0.000  0.000  0.000  0.000  1.000
  1.000  0.000  0.000  0.000  0.000
    occupations:
  0.287 -0.000 -0.000 -0.000 -0.000
 -0.000  0.095  0.000 -0.000  0.000
 -0.000  0.000  0.095  0.000  0.000
 -0.000 -0.000  0.000  0.337 -0.000
 -0.000  0.000  0.000 -0.000  0.094
atomic mag. moment =   4.04717
atom   10   Tr[ns(na)] (up, down, total) =   4.95652  0.90935  5.86587
   spin  1
    eigenvalues: 
  0.987  0.990  0.993  0.993  0.993
    eigenvectors:
  1.000  0.000  0.000  0.000  0.000
  0.000  0.000  0.000  0.500  0.500
  0.000  0.000  0.000  0.500  0.500
  0.000  1.000  0.000  0.000  0.000
  0.000  0.000  1.000  0.000  0.000
    occupations:
  0.987 -0.000 -0.000 -0.000  0.000
 -0.000  0.993 -0.000  0.000  0.000
 -0.000 -0.000  0.993 -0.000  0.000
 -0.000  0.000 -0.000  0.990 -0.000
  0.000  0.000  0.000 -0.000  0.993
   spin  2
    eigenvalues: 
  0.094  0.095  0.096  0.287  0.337
    eigenvectors:
  0.000  0.000  0.000  1.000  0.000
  0.000  0.500  0.500  0.000  0.000
  0.000  0.500  0.500  0.000  0.000
  0.000  0.000  0.000  0.000  1.000
  1.000  0.000  0.000  0.000  0.000
    occupations:
  0.287  0.000  0.000 -0.000 -0.000
  0.000  0.095  0.000  0.000 -0.000
  0.000  0.000  0.095 -0.000 -0.000
 -0.000  0.000 -0.000  0.337 -0.000
 -0.000 -0.000 -0.000 -0.000  0.094
atomic mag. moment =   4.04717
atom   11   Tr[ns(na)] (up, down, total) =   0.90925  4.95505  5.86430
   spin  1
    eigenvalues: 
  0.095  0.095  0.096  0.287  0.337
    eigenvectors:
  0.000  0.000  0.000  1.000  0.000
  0.006  0.500  0.494  0.000  0.000
  0.006  0.500  0.494  0.000  0.000
  0.000  0.000  0.000  0.000  1.000
  0.989  0.000  0.011  0.000  0.000
    occupations:
  0.287 -0.000  0.000 -0.000 -0.000
 -0.000  0.095 -0.000  0.000  0.000
  0.000 -0.000  0.095  0.000 -0.000
 -0.000  0.000  0.000  0.337 -0.000
 -0.000  0.000 -0.000 -0.000  0.095
   spin  2
    eigenvalues: 
  0.985  0.990  0.993  0.993  0.993
    eigenvectors:
  1.000  0.000  0.000  0.000  0.000
  0.000  0.000  0.000  0.500  0.500
  0.000  0.000  0.000  0.500  0.500
  0.000  1.000  0.000  0.000  0.000
  0.000  0.000  1.000  0.000  0.000
    occupations:
  0.985 -0.000  0.000 -0.000 -0.000
 -0.000  0.993  0.000 -0.000 -0.000
  0.000  0.000  0.993 -0.000  0.000
 -0.000 -0.000 -0.000  0.990 -0.000
 -0.000 -0.000  0.000 -0.000  0.993
atomic mag. moment =  -4.04579
atom   12   Tr[ns(na)] (up, down, total) =   0.90925  4.95505  5.86430
   spin  1
    eigenvalues: 
  0.095  0.095  0.096  0.287  0.337
    eigenvectors:
  0.000  0.000  0.000  1.000  0.000
  0.006  0.500  0.494  0.000  0.000
  0.006  0.500  0.494  0.000  0.000
  0.000  0.000  0.000  0.000  1.000
  0.989  0.000  0.011  0.000  0.000
    occupations:
  0.287 -0.000  0.000 -0.000 -0.000
 -0.000  0.095 -0.000  0.000  0.000
  0.000 -0.000  0.095  0.000 -0.000
 -0.000  0.000  0.000  0.337 -0.000
 -0.000  0.000 -0.000 -0.000  0.095
   spin  2
    eigenvalues: 
  0.985  0.990  0.993  0.993  0.993
    eigenvectors:
  1.000  0.000  0.000  0.000  0.000
  0.000  0.000  0.000  0.500  0.500
  0.000  0.000  0.000  0.500  0.500
  0.000  1.000  0.000  0.000  0.000
  0.000  0.000  1.000  0.000  0.000
    occupations:
  0.985 -0.000  0.000 -0.000 -0.000
 -0.000  0.993  0.000 -0.000 -0.000
  0.000  0.000  0.993 -0.000  0.000
 -0.000 -0.000 -0.000  0.990 -0.000
 -0.000 -0.000  0.000 -0.000  0.993
atomic mag. moment =  -4.04579
atom   13   Tr[ns(na)] (up, down, total) =   4.95652  0.90935  5.86587
   spin  1
    eigenvalues: 
  0.987  0.990  0.993  0.993  0.993
    eigenvectors:
  1.000  0.000  0.000  0.000  0.000
  0.000  0.000  0.000  0.500  0.500
  0.000  0.000  0.000  0.500  0.500
  0.000  1.000  0.000  0.000  0.000
  0.000  0.000  1.000  0.000  0.000
    occupations:
  0.987 -0.000 -0.000 -0.000  0.000
 -0.000  0.993 -0.000  0.000  0.000
 -0.000 -0.000  0.993 -0.000  0.000
 -0.000  0.000 -0.000  0.990 -0.000
  0.000  0.000  0.000 -0.000  0.993
   spin  2
    eigenvalues: 
  0.094  0.095  0.096  0.287  0.337
    eigenvectors:
  0.000  0.000  0.000  1.000  0.000
  0.000  0.500  0.500  0.000  0.000
  0.000  0.500  0.500  0.000  0.000
  0.000  0.000  0.000  0.000  1.000
  1.000  0.000  0.000  0.000  0.000
    occupations:
  0.287  0.000  0.000 -0.000 -0.000
  0.000  0.095  0.000  0.000 -0.000
  0.000  0.000  0.095 -0.000 -0.000
 -0.000  0.000 -0.000  0.337 -0.000
 -0.000 -0.000 -0.000 -0.000  0.094
atomic mag. moment =   4.04717
atom   14   Tr[ns(na)] (up, down, total) =   4.95652  0.90935  5.86587
   spin  1
    eigenvalues: 
  0.987  0.990  0.993  0.993  0.993
    eigenvectors:
  1.000  0.000  0.000  0.000  0.000
  0.000  0.000  0.000  0.500  0.500
  0.000  0.000  0.000  0.500  0.500
  0.000  1.000  0.000  0.000  0.000
  0.000  0.000  1.000  0.000  0.000
    occupations:
  0.987  0.000  0.000 -0.000  0.000
  0.000  0.993 -0.000 -0.000 -0.000
  0.000 -0.000  0.993  0.000 -0.000
 -0.000 -0.000  0.000  0.990 -0.000
  0.000 -0.000 -0.000 -0.000  0.993
   spin  2
    eigenvalues: 
  0.094  0.095  0.096  0.287  0.337
    eigenvectors:
  0.000  0.000  0.000  1.000  0.000
  0.000  0.500  0.500  0.000  0.000
  0.000  0.500  0.500  0.000  0.000
  0.000  0.000  0.000  0.000  1.000
  1.000  0.000  0.000  0.000  0.000
    occupations:
  0.287 -0.000 -0.000 -0.000 -0.000
 -0.000  0.095  0.000 -0.000  0.000
 -0.000  0.000  0.095  0.000  0.000
 -0.000 -0.000  0.000  0.337 -0.000
 -0.000  0.000  0.000 -0.000  0.094
atomic mag. moment =   4.04717
atom   15   Tr[ns(na)] (up, down, total) =   0.90925  4.95505  5.86430
   spin  1
    eigenvalues: 
  0.095  0.095  0.096  0.287  0.337
    eigenvectors:
  0.000  0.000  0.000  1.000  0.000
  0.006  0.500  0.494  0.000  0.000
  0.006  0.500  0.494  0.000  0.000
  0.000  0.000  0.000  0.000  1.000
  0.989  0.000  0.011  0.000  0.000
    occupations:
  0.287  0.000 -0.000 -0.000 -0.000
  0.000  0.095 -0.000 -0.000 -0.000
 -0.000 -0.000  0.095 -0.000  0.000
 -0.000 -0.000 -0.000  0.337 -0.000
 -0.000 -0.000  0.000 -0.000  0.095
   spin  2
    eigenvalues: 
  0.985  0.990  0.993  0.993  0.993
    eigenvectors:
  1.000  0.000  0.000  0.000  0.000
  0.000  0.000  0.000  0.500  0.500
  0.000  0.000  0.000  0.500  0.500
  0.000  1.000  0.000  0.000  0.000
  0.000  0.000  1.000  0.000  0.000
    occupations:
  0.985  0.000 -0.000 -0.000 -0.000
  0.000  0.993  0.000  0.000  0.000
 -0.000  0.000  0.993  0.000 -0.000
 -0.000  0.000  0.000  0.990 -0.000
 -0.000  0.000 -0.000 -0.000  0.993
atomic mag. moment =  -4.04579
atom   16   Tr[ns(na)] (up, down, total) =   0.90925  4.95505  5.86430
   spin  1
    eigenvalues: 
  0.095  0.095  0.096  0.287  0.337
    eigenvectors:
  0.000  0.000  0.000  1.000  0.000
  0.006  0.500  0.494  0.000  0.000
  0.006  0.500  0.494  0.000  0.000
  0.000  0.000  0.000  0.000  1.000
  0.989  0.000  0.011  0.000  0.000
    occupations:
  0.287  0.000 -0.000 -0.000 -0.000
  0.000  0.095 -0.000 -0.000 -0.000
 -0.000 -0.000  0.095 -0.000  0.000
 -0.000 -0.000 -0.000  0.337 -0.000
 -0.000 -0.000  0.000 -0.000  0.095
   spin  2
    eigenvalues: 
  0.985  0.990  0.993  0.993  0.993
    eigenvectors:
  1.000  0.000  0.000  0.000  0.000
  0.000  0.000  0.000  0.500  0.500
  0.000  0.000  0.000  0.500  0.500
  0.000  1.000  0.000  0.000  0.000
  0.000  0.000  1.000  0.000  0.000
    occupations:
  0.985  0.000 -0.000 -0.000 -0.000
  0.000  0.993  0.000  0.000  0.000
 -0.000  0.000  0.993  0.000 -0.000
 -0.000  0.000  0.000  0.990 -0.000
 -0.000  0.000 -0.000 -0.000  0.993
atomic mag. moment =  -4.04579
N of occupied +U levels =   46.920690
 --- exit write_ns ---

     negative rho (up, down):  1.643E-01 1.643E-01
 --- in v_hubbard ---
Hubbard energy    0.8591
 -------

     total cpu time spent up to now is     2508.5 secs

     total energy              =   -4253.33343725 Ry
     estimated scf accuracy    <       0.22953560 Ry

     total magnetization       =     0.02 Bohr mag/cell
     absolute magnetization    =    35.97 Bohr mag/cell

     iteration #  6     ecut=    35.00 Ry     beta= 0.40
     CG style diagonalization
     c_bands:  1 eigenvalues not converged
     ethr =  5.86E-05,  avg # of iterations =  3.6
 --- enter write_ns ---
 LDA+U parameters:
U( 3)     =  4.10000000
U( 4)     =  4.10000000
atom    9   Tr[ns(na)] (up, down, total) =   4.96694  1.02780  5.99473
   spin  1
    eigenvalues: 
  0.989  0.991  0.996  0.996  0.996
    eigenvectors:
  1.000  0.000  0.000  0.000  0.000
  0.000  0.000  0.000  0.500  0.500
  0.000  0.000  0.000  0.500  0.500
  0.000  1.000  0.000  0.000  0.000
  0.000  0.000  1.000  0.000  0.000
    occupations:
  0.989  0.000  0.000 -0.000 -0.000
  0.000  0.996 -0.000  0.000  0.000
  0.000 -0.000  0.996 -0.000  0.000
 -0.000  0.000 -0.000  0.991 -0.000
 -0.000  0.000  0.000 -0.000  0.996
   spin  2
    eigenvalues: 
  0.113  0.113  0.114  0.315  0.372
    eigenvectors:
  0.000  0.000  0.000  1.000  0.000
  0.000  0.500  0.500  0.000  0.000
  0.000  0.500  0.500  0.000  0.000
  0.000  0.000  0.000  0.000  1.000
  1.000  0.000  0.000  0.000  0.000
    occupations:
  0.315 -0.000 -0.000 -0.000 -0.000
 -0.000  0.113  0.000 -0.000  0.000
 -0.000  0.000  0.113  0.000  0.000
 -0.000 -0.000  0.000  0.372 -0.000
 -0.000  0.000  0.000 -0.000  0.113
atomic mag. moment =   3.93914
atom   10   Tr[ns(na)] (up, down, total) =   4.96694  1.02780  5.99473
   spin  1
    eigenvalues: 
  0.989  0.991  0.996  0.996  0.996
    eigenvectors:
  1.000  0.000  0.000  0.000  0.000
  0.000  0.000  0.000  0.500  0.500
  0.000  0.000  0.000  0.500  0.500
  0.000  1.000  0.000  0.000  0.000
  0.000  0.000  1.000  0.000  0.000
    occupations:
  0.989 -0.000 -0.000 -0.000 -0.000
 -0.000  0.996 -0.000 -0.000 -0.000
 -0.000 -0.000  0.996  0.000 -0.000
 -0.000 -0.000  0.000  0.991 -0.000
 -0.000 -0.000 -0.000 -0.000  0.996
   spin  2
    eigenvalues: 
  0.113  0.113  0.114  0.315  0.372
    eigenvectors:
  0.000  0.000  0.000  1.000  0.000
  0.000  0.500  0.500  0.000  0.000
  0.000  0.500  0.500  0.000  0.000
  0.000  0.000  0.000  0.000  1.000
  1.000  0.000  0.000  0.000  0.000
    occupations:
  0.315  0.000  0.000 -0.000 -0.000
  0.000  0.113  0.000  0.000 -0.000
  0.000  0.000  0.113 -0.000 -0.000
 -0.000  0.000 -0.000  0.372 -0.000
 -0.000 -0.000 -0.000 -0.000  0.113
atomic mag. moment =   3.93914
atom   11   Tr[ns(na)] (up, down, total) =   1.03129  4.96819  5.99949
   spin  1
    eigenvalues: 
  0.113  0.114  0.114  0.315  0.375
    eigenvectors:
  0.000  0.000  0.000  1.000  0.000
  0.500  0.331  0.169  0.000  0.000
  0.500  0.331  0.169  0.000  0.000
  0.000  0.000  0.000  0.000  1.000
  0.000  0.338  0.662  0.000  0.000
    occupations:
  0.315  0.000 -0.000 -0.000 -0.000
  0.000  0.114 -0.000 -0.000  0.000
 -0.000 -0.000  0.114 -0.000 -0.000
 -0.000 -0.000 -0.000  0.375 -0.000
 -0.000  0.000 -0.000 -0.000  0.114
   spin  2
    eigenvalues: 
  0.991  0.991  0.996  0.996  0.996
    eigenvectors:
  1.000  0.000  0.000  0.000  0.000
  0.000  0.000  0.000  0.500  0.500
  0.000  0.000  0.000  0.500  0.500
  0.000  1.000  0.000  0.000  0.000
  0.000  0.000  1.000  0.000  0.000
    occupations:
  0.991 -0.000  0.000 -0.000 -0.000
 -0.000  0.996 -0.000 -0.000 -0.000
  0.000 -0.000  0.996 -0.000  0.000
 -0.000 -0.000 -0.000  0.991 -0.000
 -0.000 -0.000  0.000 -0.000  0.996
atomic mag. moment =  -3.93690
atom   12   Tr[ns(na)] (up, down, total) =   1.03129  4.96819  5.99949
   spin  1
    eigenvalues: 
  0.113  0.114  0.114  0.315  0.375
    eigenvectors:
  0.000  0.000  0.000  1.000  0.000
  0.500  0.331  0.169  0.000  0.000
  0.500  0.331  0.169  0.000  0.000
  0.000  0.000  0.000  0.000  1.000
  0.000  0.338  0.662  0.000  0.000
    occupations:
  0.315  0.000 -0.000 -0.000 -0.000
  0.000  0.114 -0.000 -0.000  0.000
 -0.000 -0.000  0.114 -0.000 -0.000
 -0.000 -0.000 -0.000  0.375 -0.000
 -0.000  0.000 -0.000 -0.000  0.114
   spin  2
    eigenvalues: 
  0.991  0.991  0.996  0.996  0.996
    eigenvectors:
  1.000  0.000  0.000  0.000  0.000
  0.000  0.000  0.000  0.500  0.500
  0.000  0.000  0.000  0.500  0.500
  0.000  1.000  0.000  0.000  0.000
  0.000  0.000  1.000  0.000  0.000
    occupations:
  0.991 -0.000  0.000 -0.000 -0.000
 -0.000  0.996 -0.000 -0.000 -0.000
  0.000 -0.000  0.996 -0.000  0.000
 -0.000 -0.000 -0.000  0.991 -0.000
 -0.000 -0.000  0.000 -0.000  0.996
atomic mag. moment =  -3.93690
atom   13   Tr[ns(na)] (up, down, total) =   4.96694  1.02780  5.99473
   spin  1
    eigenvalues: 
  0.989  0.991  0.996  0.996  0.996
    eigenvectors:
  1.000  0.000  0.000  0.000  0.000
  0.000  0.000  0.000  0.500  0.500
  0.000  0.000  0.000  0.500  0.500
  0.000  1.000  0.000  0.000  0.000
  0.000  0.000  1.000  0.000  0.000
    occupations:
  0.989 -0.000 -0.000 -0.000 -0.000
 -0.000  0.996 -0.000 -0.000 -0.000
 -0.000 -0.000  0.996  0.000 -0.000
 -0.000 -0.000  0.000  0.991 -0.000
 -0.000 -0.000 -0.000 -0.000  0.996
   spin  2
    eigenvalues: 
  0.113  0.113  0.114  0.315  0.372
    eigenvectors:
  0.000  0.000  0.000  1.000  0.000
  0.000  0.500  0.500  0.000  0.000
  0.000  0.500  0.500  0.000  0.000
  0.000  0.000  0.000  0.000  1.000
  1.000  0.000  0.000  0.000  0.000
    occupations:
  0.315  0.000  0.000 -0.000 -0.000
  0.000  0.113  0.000  0.000 -0.000
  0.000  0.000  0.113 -0.000 -0.000
 -0.000  0.000 -0.000  0.372 -0.000
 -0.000 -0.000 -0.000 -0.000  0.113
atomic mag. moment =   3.93914
atom   14   Tr[ns(na)] (up, down, total) =   4.96694  1.02780  5.99473
   spin  1
    eigenvalues: 
  0.989  0.991  0.996  0.996  0.996
    eigenvectors:
  1.000  0.000  0.000  0.000  0.000
  0.000  0.000  0.000  0.500  0.500
  0.000  0.000  0.000  0.500  0.500
  0.000  1.000  0.000  0.000  0.000
  0.000  0.000  1.000  0.000  0.000
    occupations:
  0.989  0.000  0.000 -0.000 -0.000
  0.000  0.996 -0.000  0.000  0.000
  0.000 -0.000  0.996 -0.000  0.000
 -0.000  0.000 -0.000  0.991 -0.000
 -0.000  0.000  0.000 -0.000  0.996
   spin  2
    eigenvalues: 
  0.113  0.113  0.114  0.315  0.372
    eigenvectors:
  0.000  0.000  0.000  1.000  0.000
  0.000  0.500  0.500  0.000  0.000
  0.000  0.500  0.500  0.000  0.000
  0.000  0.000  0.000  0.000  1.000
  1.000  0.000  0.000  0.000  0.000
    occupations:
  0.315 -0.000 -0.000 -0.000 -0.000
 -0.000  0.113  0.000 -0.000  0.000
 -0.000  0.000  0.113  0.000  0.000
 -0.000 -0.000  0.000  0.372 -0.000
 -0.000  0.000  0.000 -0.000  0.113
atomic mag. moment =   3.93914
atom   15   Tr[ns(na)] (up, down, total) =   1.03129  4.96819  5.99949
   spin  1
    eigenvalues: 
[...]
     1.0000   1.0000   1.0000   1.0000   1.0000   1.0000   1.0000   1.0000
     1.0000   1.0000   1.0000   1.0000   1.0000   1.0000   1.0000   1.0000
     1.0000   1.0000   1.0000   1.0000   1.0000   1.0000   1.0000   1.0000
     1.0000   1.0000   1.0000   1.0000   1.0000   1.0000   1.0000   1.0000
     1.0000   1.0000   1.0000   1.0000   1.0000   1.0000   1.0000   1.0000
     1.0000   1.0000   1.0000   1.0000   1.0000   1.0000   1.0000   1.0000
     1.0000   1.0000   1.0000   1.0000   1.0000   1.0000   1.0000   1.0000
     1.0000   1.0000   1.0000   1.0000   1.0000   1.0000   1.0000   1.0000
     1.0000   1.0000   1.0000   1.0000   1.0000   1.0000   1.0000   1.0000
     1.0000   1.0000   1.0000   1.0000   1.0000   1.0000   1.0000   1.0000
     1.0000   1.0000   1.0000   1.0000   1.0000   1.0000   1.0000   1.0000
     1.0000   1.0000   1.0000   1.0000   1.0000   1.0000   1.0000   1.0000
     1.0000   1.0000   1.0000   1.0000   1.0000   1.0000   1.0000   1.0000
     1.0000   1.0000   1.0000   1.0000   1.0000   1.0000   1.0000   1.0000
     1.0000   1.0000   1.0000   1.0000   1.0000   1.0000   1.0000   1.0000
     1.0000   1.0000   1.0000   1.0000   1.0000   1.0000   1.0000   1.0000
     1.0000   1.0000   1.0000   1.0000   1.0000   1.0000   1.0000   1.0000
     1.0000   1.0000   1.0000   1.0000   1.0000   1.0000   1.0000   1.0000
     1.0000   1.0000   1.0000   1.0000   1.0000   1.0000   1.0000   1.0000
     1.0000   1.0000   1.0000   1.0000   1.0000   1.0000   1.0000   1.0000
     1.0000   1.0000   1.0000   1.0000   1.0000   1.0000   1.0000   1.0000
     1.0000   1.0000   1.0168   1.0226  -0.0000  -0.0000  -0.0000  -0.0000
    -0.0000  -0.0000  -0.0000  -0.0000  -0.0000  -0.0000  -0.0000  -0.0000
    -0.0000  -0.0000  -0.0000  -0.0000  -0.0000  -0.0000  -0.0000  -0.0000
    -0.0000  -0.0000  -0.0000  -0.0000  -0.0000  -0.0000  -0.0000  -0.0000
    -0.0000  -0.0000  -0.0000  -0.0000  -0.0000  -0.0000  -0.0000  -0.0000
    -0.0000  -0.0000  -0.0000

          k = 0.3333-0.3333 0.0000 ( 11590 PWs)   bands (ev):

   -78.9099 -78.9099 -78.9099 -78.9099 -73.7351 -73.7351 -73.7351 -73.7351
   -45.0800 -45.0800 -45.0791 -45.0790 -44.9779 -44.9779 -44.9778 -44.9777
   -44.9777 -44.9777 -44.9777 -44.9777 -40.0041 -40.0041 -40.0023 -40.0023
   -39.9778 -39.9778 -39.9777 -39.9777 -39.9776 -39.9776 -39.9776 -39.9776
   -11.7471 -11.7407 -11.7401 -11.7373 -11.7369 -11.7358 -11.7352 -11.7345
   -11.7323 -11.7263 -11.7262 -11.7243 -11.7194 -11.7180 -11.7177 -11.7176
   -11.7161 -11.7160 -11.7156 -11.7151 -11.7111 -11.7109 -11.7096 -11.7095
   -11.7059 -11.7058 -11.7056 -11.7051 -11.7051 -11.7006 -11.7000 -11.6989
   -11.6981 -11.6980 -11.6976 -11.6974 -11.6958 -11.6927 -11.6924 -11.6898
    -6.7889  -6.5128  -6.3783  -6.1333  -6.0653  -5.8111  -5.7593  -5.5905
    -5.5621  -5.5458  -5.4963  -5.4697  -5.4581  -5.4178  -5.3524  -5.3211
    -5.2864  -5.2824  -5.2624  -5.2399  -5.2068  -5.1714  -5.0253  -5.0173
     0.8682   0.8964   0.9452   0.9768   1.1279   1.1755   1.2133   1.4866
     3.8017   3.8114   4.2740   4.5189   4.6171   4.6323   4.6377   4.7341
     4.8071   4.8260   4.9286   5.0436   5.1004   5.1191   5.1222   5.1546
     5.1931   5.2169   5.2172   5.3416   5.5695   6.0692   6.3911   6.5879
     6.6060   6.6869   6.7876   6.7963   6.8015   6.8745   6.9560   6.9659
     6.9933   7.1068   7.5921   7.6442   7.6597   7.6774   7.7532   7.7791
     7.8574   7.9171   7.9803   8.0439   8.0521   8.0594   8.4056   8.4480
     8.4493   8.5133   8.7293   8.7318   8.8996   8.9676   9.0702   9.0917
     9.1840   9.1954   9.2548   9.2736   9.3470   9.4444   9.6477   9.7447
     9.7849   9.8428   9.8647   9.8788   9.8881   9.8923   9.9927   9.9929
    10.0153  10.0703  10.0790  10.1448  10.1506  10.1523  10.1921  10.3812
    10.4288  10.4654  10.5465  10.6432  10.6777  10.7231  11.2074  11.3127
    11.3666  11.3763  12.2065  12.2652  13.2649  13.3575  13.3629  13.7628
    13.7635  13.8519  13.8941  13.8967  13.9377  13.9408  14.0171  14.0176
    14.0436  14.0606  14.1992  14.2397  14.2995  14.3231  14.3828  14.4140
    14.4167  14.4750  14.5478  14.8520  14.8871  14.9172  14.9208  14.9825
    15.0914  15.0980  15.1204  15.1715  15.1997  15.2471  15.3612  15.4295
    15.4862  15.7247  16.0685

     occupation numbers 
     1.0000   1.0000   1.0000   1.0000   1.0000   1.0000   1.0000   1.0000
     1.0000   1.0000   1.0000   1.0000   1.0000   1.0000   1.0000   1.0000
     1.0000   1.0000   1.0000   1.0000   1.0000   1.0000   1.0000   1.0000
     1.0000   1.0000   1.0000   1.0000   1.0000   1.0000   1.0000   1.0000
     1.0000   1.0000   1.0000   1.0000   1.0000   1.0000   1.0000   1.0000
     1.0000   1.0000   1.0000   1.0000   1.0000   1.0000   1.0000   1.0000
     1.0000   1.0000   1.0000   1.0000   1.0000   1.0000   1.0000   1.0000
     1.0000   1.0000   1.0000   1.0000   1.0000   1.0000   1.0000   1.0000
     1.0000   1.0000   1.0000   1.0000   1.0000   1.0000   1.0000   1.0000
     1.0000   1.0000   1.0000   1.0000   1.0000   1.0000   1.0000   1.0000
     1.0000   1.0000   1.0000   1.0000   1.0000   1.0000   1.0000   1.0000
     1.0000   1.0000   1.0000   1.0000   1.0000   1.0000   1.0000   1.0000
     1.0000   1.0000   1.0000   1.0000   1.0000   1.0000   1.0000   1.0000
     1.0000   1.0000   1.0000   1.0000   1.0000   1.0000   1.0000   1.0000
     1.0000   1.0000   1.0000   1.0000   1.0000   1.0000   1.0000   1.0000
     1.0000   1.0000   1.0000   1.0000   1.0000   1.0000   1.0000   1.0000
     1.0000   1.0000   1.0000   1.0000   1.0000   1.0000   1.0000   1.0000
     1.0000   1.0000   1.0000   1.0000   1.0000   1.0000   1.0000   1.0000
     1.0000   1.0000   1.0000   1.0000   1.0000   1.0000   1.0000   1.0000
     1.0000   1.0000   1.0000   1.0000   1.0000   1.0000   1.0000   1.0000
     1.0000   1.0000   1.0000   1.0000   1.0000   1.0000   1.0000   1.0000
     1.0000   1.0000   1.0000   1.0000   1.0000   1.0000   1.0000   1.0000
     1.0000   1.0000   1.0000   1.0000   1.0000   1.0000   1.0000   1.0000
     1.0000   1.0000   1.0000   1.0000   1.0000   1.0000   1.0000   1.0000
     1.0000   1.0000   0.8262   0.4943  -0.0000  -0.0000  -0.0000  -0.0000
    -0.0000  -0.0000  -0.0000  -0.0000  -0.0000  -0.0000  -0.0000  -0.0000
    -0.0000  -0.0000  -0.0000  -0.0000  -0.0000  -0.0000  -0.0000  -0.0000
    -0.0000  -0.0000  -0.0000  -0.0000  -0.0000  -0.0000  -0.0000  -0.0000
    -0.0000  -0.0000  -0.0000  -0.0000  -0.0000  -0.0000  -0.0000  -0.0000
    -0.0000  -0.0000  -0.0000

          k =-0.3333-0.3333 0.0000 ( 11590 PWs)   bands (ev):

   -78.9099 -78.9099 -78.9099 -78.9099 -73.7351 -73.7351 -73.7351 -73.7351
   -45.0800 -45.0800 -45.0791 -45.0790 -44.9779 -44.9779 -44.9777 -44.9777
   -44.9777 -44.9777 -44.9777 -44.9777 -40.0041 -40.0041 -40.0023 -40.0023
   -39.9778 -39.9778 -39.9777 -39.9777 -39.9776 -39.9776 -39.9776 -39.9776
   -11.7471 -11.7407 -11.7401 -11.7373 -11.7369 -11.7358 -11.7352 -11.7345
   -11.7323 -11.7263 -11.7262 -11.7243 -11.7194 -11.7180 -11.7177 -11.7176
   -11.7161 -11.7160 -11.7156 -11.7151 -11.7111 -11.7109 -11.7096 -11.7095
   -11.7059 -11.7058 -11.7056 -11.7051 -11.7051 -11.7006 -11.7000 -11.6989
   -11.6981 -11.6980 -11.6976 -11.6974 -11.6958 -11.6927 -11.6924 -11.6898
    -6.7889  -6.5128  -6.3783  -6.1333  -6.0653  -5.8111  -5.7593  -5.5905
    -5.5621  -5.5458  -5.4963  -5.4697  -5.4581  -5.4178  -5.3524  -5.3211
    -5.2864  -5.2824  -5.2624  -5.2399  -5.2068  -5.1714  -5.0253  -5.0173
     0.8682   0.8964   0.9452   0.9768   1.1279   1.1755   1.2133   1.4866
     3.8017   3.8114   4.2740   4.5189   4.6171   4.6323   4.6377   4.7341
     4.8071   4.8260   4.9286   5.0436   5.1004   5.1191   5.1222   5.1546
     5.1931   5.2168   5.2172   5.3416   5.5695   6.0692   6.3911   6.5879
     6.6060   6.6869   6.7876   6.7963   6.8015   6.8745   6.9560   6.9659
     6.9933   7.1068   7.5921   7.6442   7.6597   7.6774   7.7532   7.7791
     7.8574   7.9171   7.9803   8.0439   8.0521   8.0594   8.4056   8.4480
     8.4493   8.5133   8.7293   8.7318   8.8996   8.9676   9.0702   9.0917
     9.1840   9.1954   9.2548   9.2736   9.3470   9.4444   9.6477   9.7447
     9.7849   9.8428   9.8647   9.8788   9.8881   9.8923   9.9927   9.9929
    10.0153  10.0703  10.0790  10.1448  10.1506  10.1523  10.1921  10.3812
    10.4288  10.4654  10.5465  10.6432  10.6777  10.7231  11.2074  11.3127
    11.3666  11.3763  12.2065  12.2652  13.2649  13.3575  13.3629  13.7628
    13.7635  13.8519  13.8941  13.8967  13.9377  13.9408  14.0169  14.0176
    14.0436  14.0609  14.1991  14.2397  14.2997  14.3234  14.3828  14.4138
    14.4164  14.4750  14.5478  14.8521  14.8871  14.9171  14.9247  14.9825
    15.0914  15.0980  15.1201  15.1997  15.2470  15.3136  15.3609  15.4295
    15.4867  15.6161  15.7247

     occupation numbers 
     1.0000   1.0000   1.0000   1.0000   1.0000   1.0000   1.0000   1.0000
     1.0000   1.0000   1.0000   1.0000   1.0000   1.0000   1.0000   1.0000
     1.0000   1.0000   1.0000   1.0000   1.0000   1.0000   1.0000   1.0000
     1.0000   1.0000   1.0000   1.0000   1.0000   1.0000   1.0000   1.0000
     1.0000   1.0000   1.0000   1.0000   1.0000   1.0000   1.0000   1.0000
     1.0000   1.0000   1.0000   1.0000   1.0000   1.0000   1.0000   1.0000
     1.0000   1.0000   1.0000   1.0000   1.0000   1.0000   1.0000   1.0000
     1.0000   1.0000   1.0000   1.0000   1.0000   1.0000   1.0000   1.0000
     1.0000   1.0000   1.0000   1.0000   1.0000   1.0000   1.0000   1.0000
     1.0000   1.0000   1.0000   1.0000   1.0000   1.0000   1.0000   1.0000
     1.0000   1.0000   1.0000   1.0000   1.0000   1.0000   1.0000   1.0000
     1.0000   1.0000   1.0000   1.0000   1.0000   1.0000   1.0000   1.0000
     1.0000   1.0000   1.0000   1.0000   1.0000   1.0000   1.0000   1.0000
     1.0000   1.0000   1.0000   1.0000   1.0000   1.0000   1.0000   1.0000
     1.0000   1.0000   1.0000   1.0000   1.0000   1.0000   1.0000   1.0000
     1.0000   1.0000   1.0000   1.0000   1.0000   1.0000   1.0000   1.0000
     1.0000   1.0000   1.0000   1.0000   1.0000   1.0000   1.0000   1.0000
     1.0000   1.0000   1.0000   1.0000   1.0000   1.0000   1.0000   1.0000
     1.0000   1.0000   1.0000   1.0000   1.0000   1.0000   1.0000   1.0000
     1.0000   1.0000   1.0000   1.0000   1.0000   1.0000   1.0000   1.0000
     1.0000   1.0000   1.0000   1.0000   1.0000   1.0000   1.0000   1.0000
     1.0000   1.0000   1.0000   1.0000   1.0000   1.0000   1.0000   1.0000
     1.0000   1.0000   1.0000   1.0000   1.0000   1.0000   1.0000   1.0000
     1.0000   1.0000   1.0000   1.0000   1.0000   1.0000   1.0000   1.0000
     1.0000   1.0000   0.8262   0.4943  -0.0000  -0.0000  -0.0000  -0.0000
    -0.0000  -0.0000  -0.0000  -0.0000  -0.0000  -0.0000  -0.0000  -0.0000
    -0.0000  -0.0000  -0.0000  -0.0000  -0.0000  -0.0000  -0.0000  -0.0000
    -0.0000  -0.0000  -0.0000  -0.0000  -0.0000  -0.0000  -0.0000  -0.0000
    -0.0000  -0.0000  -0.0000  -0.0000  -0.0000  -0.0000  -0.0000  -0.0000
    -0.0000  -0.0000  -0.0000

          k = 0.3333-0.3333 0.3333 ( 11626 PWs)   bands (ev):

   -78.9099 -78.9099 -78.9099 -78.9099 -73.7351 -73.7351 -73.7351 -73.7351
   -45.0798 -45.0798 -45.0794 -45.0793 -44.9778 -44.9778 -44.9778 -44.9778
   -44.9778 -44.9778 -44.9777 -44.9777 -40.0037 -40.0037 -40.0028 -40.0028
   -39.9777 -39.9777 -39.9777 -39.9777 -39.9777 -39.9777 -39.9777 -39.9776
   -11.7369 -11.7332 -11.7320 -11.7314 -11.7299 -11.7295 -11.7290 -11.7284
   -11.7274 -11.7270 -11.7252 -11.7208 -11.7189 -11.7184 -11.7167 -11.7149
   -11.7149 -11.7133 -11.7130 -11.7130 -11.7129 -11.7126 -11.7125 -11.7122
   -11.7122 -11.7104 -11.7101 -11.7101 -11.7099 -11.7034 -11.7028 -11.7022
   -11.7021 -11.7010 -11.7009 -11.7005 -11.7003 -11.6989 -11.6985 -11.6967
    -6.6552  -6.3808  -6.3208  -6.2635  -6.0599  -6.0219  -5.9767  -5.7555
    -5.4772  -5.4750  -5.4750  -5.4534  -5.4320  -5.3920  -5.3794  -5.3435
    -5.2644  -5.2276  -5.2249  -5.1909  -5.1567  -5.1564  -5.0539  -5.0452
     0.9482   0.9726   0.9959   1.0797   1.0889   1.1029   1.1425   1.3475
     4.2035   4.2228   4.4616   4.6048   4.6391   4.6436   4.6595   4.7521
     4.8005   4.8277   4.8695   4.9171   4.9202   4.9513   5.0236   5.0627
     5.0639   5.0758   5.1507   5.2006   5.7447   6.1444   6.3120   6.5261
     6.5412   6.7198   6.7845   6.8007   6.8626   6.9095   7.0167   7.0189
     7.1500   7.1685   7.2357   7.3188   7.4160   7.4276   7.4679   7.5519
     7.7529   7.7826   7.8041   7.9730   7.9924   8.1128   8.3229   8.4553
     8.5092   8.5624   8.6944   8.7740   8.8258   9.1789   9.2399   9.3117
     9.4644   9.4704   9.5131   9.5594   9.6561   9.6814   9.6831   9.7594
     9.8231   9.8441   9.8932   9.9270   9.9847  10.0071  10.0098  10.0121
    10.0311  10.0619  10.1215  10.1352  10.1559  10.1743  10.3464  10.3514
    10.4670  10.4875  10.5092  10.5904  10.7934  10.8529  11.2506  11.3409
    11.3419  11.3746  11.8289  11.8617  13.0234  13.0676  13.1097  13.2381
    13.2413  13.3372  13.5027  13.6790  13.9517  13.9964  14.1207  14.1443
    14.1580  14.1588  14.1687  14.2477  14.2745  14.3191  14.4956  14.6404
    14.7113  14.7179  14.8722  14.9402  14.9460  15.0390  15.0630  15.1370
    15.1846  15.2212  15.2671  15.2761  15.3104  15.5388  15.5406  15.6134
    15.6227  15.7466  15.7672

     occupation numbers 
     1.0000   1.0000   1.0000   1.0000   1.0000   1.0000   1.0000   1.0000
     1.0000   1.0000   1.0000   1.0000   1.0000   1.0000   1.0000   1.0000
     1.0000   1.0000   1.0000   1.0000   1.0000   1.0000   1.0000   1.0000
     1.0000   1.0000   1.0000   1.0000   1.0000   1.0000   1.0000   1.0000
     1.0000   1.0000   1.0000   1.0000   1.0000   1.0000   1.0000   1.0000
     1.0000   1.0000   1.0000   1.0000   1.0000   1.0000   1.0000   1.0000
     1.0000   1.0000   1.0000   1.0000   1.0000   1.0000   1.0000   1.0000
     1.0000   1.0000   1.0000   1.0000   1.0000   1.0000   1.0000   1.0000
     1.0000   1.0000   1.0000   1.0000   1.0000   1.0000   1.0000   1.0000
     1.0000   1.0000   1.0000   1.0000   1.0000   1.0000   1.0000   1.0000
     1.0000   1.0000   1.0000   1.0000   1.0000   1.0000   1.0000   1.0000
     1.0000   1.0000   1.0000   1.0000   1.0000   1.0000   1.0000   1.0000
     1.0000   1.0000   1.0000   1.0000   1.0000   1.0000   1.0000   1.0000
     1.0000   1.0000   1.0000   1.0000   1.0000   1.0000   1.0000   1.0000
     1.0000   1.0000   1.0000   1.0000   1.0000   1.0000   1.0000   1.0000
     1.0000   1.0000   1.0000   1.0000   1.0000   1.0000   1.0000   1.0000
     1.0000   1.0000   1.0000   1.0000   1.0000   1.0000   1.0000   1.0000
     1.0000   1.0000   1.0000   1.0000   1.0000   1.0000   1.0000   1.0000
     1.0000   1.0000   1.0000   1.0000   1.0000   1.0000   1.0000   1.0000
     1.0000   1.0000   1.0000   1.0000   1.0000   1.0000   1.0000   1.0000
     1.0000   1.0000   1.0000   1.0000   1.0000   1.0000   1.0000   1.0000
     1.0000   1.0000   1.0000   1.0000   1.0000   1.0000   1.0000   1.0000
     1.0000   1.0000   1.0000   1.0000   1.0000   1.0000   1.0000   1.0000
     1.0000   1.0000   1.0000   1.0000   1.0000   1.0000   1.0000   1.0000
     1.0000   1.0000   1.0000   1.0001  -0.0000  -0.0000  -0.0000  -0.0000
    -0.0000  -0.0000  -0.0000  -0.0000  -0.0000  -0.0000  -0.0000  -0.0000
    -0.0000  -0.0000  -0.0000  -0.0000  -0.0000  -0.0000  -0.0000  -0.0000
    -0.0000  -0.0000  -0.0000  -0.0000  -0.0000  -0.0000  -0.0000  -0.0000
    -0.0000  -0.0000  -0.0000  -0.0000  -0.0000  -0.0000  -0.0000  -0.0000
    -0.0000  -0.0000  -0.0000

     the Fermi energy is    12.2643 ev

!    total energy              =   -4253.40612714 Ry
     estimated scf accuracy    <       0.00000075 Ry
     smearing contrib. (-TS)   =      -0.00042667 Ry
     internal energy E=F+TS    =   -4253.40570047 Ry

     The total energy is F=E-TS. E is the sum of the following terms:
     one-electron contribution =   -1692.50218523 Ry
     hartree contribution      =    1093.33725518 Ry
     xc contribution           =    -917.58113213 Ry
     ewald contribution        =   -2737.60377451 Ry
     Hubbard energy            =       0.94413622 Ry

     total magnetization       =    -0.00 Bohr mag/cell
     absolute magnetization    =    35.48 Bohr mag/cell

     convergence has been achieved in  14 iterations

     Writing output data file /home/aldair1809/Documentos/QE/4BFO/temp_cubic/scf/bifeo3.save/

     init_run     :    147.48s CPU    148.97s WALL (       1 calls)
     electrons    :   6791.62s CPU   6867.47s WALL (       1 calls)

     Called by init_run:
     wfcinit      :    143.26s CPU    144.07s WALL (       1 calls)
     wfcinit:atom :      0.14s CPU      0.14s WALL (      16 calls)
     wfcinit:wfcr :    100.38s CPU    101.11s WALL (      16 calls)
     potinit      :      0.39s CPU      0.46s WALL (       1 calls)
     hinit0       :      0.49s CPU      0.52s WALL (       1 calls)

     Called by electrons:
     c_bands      :   6236.63s CPU   6287.78s WALL (      14 calls)
     sum_band     :    504.39s CPU    519.25s WALL (      14 calls)
     v_of_rho     :      5.08s CPU      5.28s WALL (      15 calls)
     v_h          :      0.20s CPU      0.21s WALL (      15 calls)
     v_xc         :      4.87s CPU      5.07s WALL (      15 calls)
     newd         :     47.48s CPU     57.61s WALL (      15 calls)
     mix_rho      :      0.95s CPU      0.99s WALL (      14 calls)

     Called by c_bands:
     init_us_2    :      7.57s CPU      7.60s WALL (     480 calls)
     ccgdiagg     :   4863.65s CPU   4906.99s WALL (     224 calls)
     wfcrot       :   1466.68s CPU   1475.19s WALL (     224 calls)

     Called by sum_band:
     sum_band:wei :      0.10s CPU      0.10s WALL (      14 calls)
     sum_band:loo :    384.92s CPU    389.79s WALL (      14 calls)
     sum_band:buf :      1.39s CPU      1.39s WALL (     224 calls)
     sum_band:ini :      3.53s CPU      3.54s WALL (     224 calls)
     sum_band:cal :    304.07s CPU    304.63s WALL (     224 calls)
     sum_band:bec :      1.72s CPU      1.73s WALL (     224 calls)
     addusdens    :     96.59s CPU    106.49s WALL (      14 calls)
     addusd:skk   :      0.24s CPU      0.26s WALL (      56 calls)
     addusd:dgemm :     63.86s CPU     72.00s WALL (     112 calls)
     addusd:qvan2 :     31.99s CPU     32.05s WALL (     112 calls)

     Called by *cgdiagg:
     h_psi        :   2894.34s CPU   2933.74s WALL (  130929 calls)
     s_psi        :   1900.62s CPU   1905.61s WALL (  261650 calls)

     Called by h_psi:
     h_psi:calbec :   1094.42s CPU   1105.99s WALL (  130929 calls)
     vloc_psi     :    499.47s CPU    523.55s WALL (  130929 calls)
     add_vuspsi   :   1099.07s CPU   1101.38s WALL (  130929 calls)
     vhpsi        :    196.02s CPU    198.07s WALL (  130929 calls)
     hs_1psi      :   2868.70s CPU   2902.45s WALL (  130705 calls)
     s_1psi       :   1558.25s CPU   1565.18s WALL (  130705 calls)

     General routines
     calbec       :   2338.98s CPU   2358.17s WALL (  393027 calls)
     fft          :      3.66s CPU      3.92s WALL (     369 calls)
     ffts         :      0.13s CPU      0.14s WALL (      58 calls)
     fftw         :    474.69s CPU    500.72s WALL (  420514 calls)
     interpolate  :      0.43s CPU      0.45s WALL (      30 calls)
     davcio       :      0.01s CPU      0.18s WALL (      16 calls)

     Parallel routines
     fft_scatt_xy :     75.07s CPU     80.28s WALL (  420941 calls)
     fft_scatt_yz :     87.84s CPU     96.16s WALL (  420941 calls)

     Hubbard U routines
     new_ns       :     21.62s CPU     21.65s WALL (      14 calls)
     new_ns       :     21.62s CPU     21.65s WALL (      14 calls)
     vhpsi        :    196.02s CPU    198.07s WALL (  130929 calls)

     PWSCF        :      1h55m CPU      1h56m WALL


   This run was terminated on:  16:32:25   6Dec2024            

=------------------------------------------------------------------------------=
   JOB DONE.
=------------------------------------------------------------------------------=
