
     Program PWSCF v.6.7MaX starts on 15Dec2024 at 18:32:42 

     This program is part of the open-source Quantum ESPRESSO suite
     for quantum simulation of materials; please cite
         "P. Giannozzi et al., J. Phys.:Condens. Matter 21 395502 (2009);
         "P. Giannozzi et al., J. Phys.:Condens. Matter 29 465901 (2017);
          URL http://www.quantum-espresso.org", 
     in publications or presentations arising from this work. More details at
     http://www.quantum-espresso.org/quote

     Parallel version (MPI), running on     6 processors

     MPI processes distributed on     1 nodes
     R & G space division:  proc/nbgrp/npool/nimage =       6
     Waiting for input...
     Reading input from standard input

     Current dimensions of program PWSCF are:
     Max number of different atomic species (ntypx) = 10
     Max number of k-points (npk) =  40000
     Max angular momentum in pseudopotentials (lmaxx) =  3
     Message from routine iosys:
     wrong startingpot: use default (2)

     Atomic positions and unit cell read from directory:
     /home/aldair1809/Documentos/QE/4BFO/temp_tipoA/bands/bifeo3.save/
     Atomic positions from file used, from input discarded


     Subspace diagonalization in iterative solution of the eigenvalue problem:
     one sub-group per band group will be used
     scalapack distributed-memory algorithm (size of sub-group:  2*  2 procs)


     Parallelization info
     --------------------
     sticks:   dense  smooth     PW     G-vecs:    dense   smooth      PW
     Min         401     200     57                39339    13882    2095
     Max         402     201     59                39350    13889    2099
     Sum        2407    1201    349               236061    83311   12583



     bravais-lattice index     =            4
     lattice parameter (alat)  =      10.4531  a.u.
     unit-cell volume          =    2440.6662 (a.u.)^3
     number of atoms/cell      =           30
     number of atomic types    =            4
     number of electrons       =       294.00
     number of Kohn-Sham states=          176
     kinetic-energy cutoff     =      40.0000  Ry
     charge density cutoff     =     320.0000  Ry
     Exchange-correlation=  SLA  PW   PBX  PBC
                           (   1   4   3   4   0   0   0)

     celldm(1)=  10.453102  celldm(2)=   0.000000  celldm(3)=   2.467415
     celldm(4)=   0.000000  celldm(5)=   0.000000  celldm(6)=   0.000000

     crystal axes: (cart. coord. in units of alat)
               a(1) = (   1.000000   0.000000   0.000000 )  
               a(2) = (  -0.500000   0.866025   0.000000 )  
               a(3) = (   0.000000   0.000000   2.467415 )  

     reciprocal axes: (cart. coord. in units 2 pi/alat)
               b(1) = (  1.000000  0.577350 -0.000000 )  
               b(2) = (  0.000000  1.154701  0.000000 )  
               b(3) = (  0.000000 -0.000000  0.405282 )  


     PseudoPot. # 1 for O  read from file:
     /home/aldair1809/Programas/QE/q-e-qe-7.3/pseudo/o_pbe_v1.2.uspp.F.UPF
     MD5 check sum: 734c27235a0248c51dbae37a1fbe46ec
     Pseudo is Ultrasoft + core correction, Zval =  6.0
     Generated by new atomic code, or converted to UPF format
     Using radial grid of  737 points,  5 beta functions with: 
                l(1) =   0
                l(2) =   0
                l(3) =   1
                l(4) =   1
                l(5) =   2
     Q(r) pseudized with  8 coefficients,  rinner =    0.900   0.900   0.900
                                                       0.900   0.900

     PseudoPot. # 2 for Bi read from file:
     /home/aldair1809/Programas/QE/q-e-qe-7.3/pseudo/bi_pbe_v1.uspp.F.UPF
     MD5 check sum: cceb9f28ec65b6d7ff33140f5b0b1758
     Pseudo is Ultrasoft + core correction, Zval = 15.0
     Generated by new atomic code, or converted to UPF format
     Using radial grid of  899 points,  6 beta functions with: 
                l(1) =   0
                l(2) =   0
                l(3) =   1
                l(4) =   1
                l(5) =   2
                l(6) =   2
     Q(r) pseudized with  6 coefficients,  rinner =    1.000   1.000   1.000
                                                       1.000   1.000

     PseudoPot. # 3 for Fe read from file:
     /home/aldair1809/Programas/QE/q-e-qe-7.3/pseudo/fe_pbe_v1.5.uspp.F.UPF
     MD5 check sum: a130daea23fe5165f5d574ae7f82ed95
     Pseudo is Ultrasoft + core correction, Zval = 16.0
     Generated by new atomic code, or converted to UPF format
     Using radial grid of  861 points,  6 beta functions with: 
                l(1) =   0
                l(2) =   0
                l(3) =   1
                l(4) =   1
                l(5) =   2
                l(6) =   2
     Q(r) pseudized with  8 coefficients,  rinner =    1.000   1.000   1.000
                                                       1.000   1.000

     PseudoPot. # 4 for Fe read from file:
     /home/aldair1809/Programas/QE/q-e-qe-7.3/pseudo/fe_pbe_v1.5.uspp.F.UPF
     MD5 check sum: a130daea23fe5165f5d574ae7f82ed95
     Pseudo is Ultrasoft + core correction, Zval = 16.0
     Generated by new atomic code, or converted to UPF format
     Using radial grid of  861 points,  6 beta functions with: 
                l(1) =   0
                l(2) =   0
                l(3) =   1
                l(4) =   1
                l(5) =   2
                l(6) =   2
     Q(r) pseudized with  8 coefficients,  rinner =    1.000   1.000   1.000
                                                       1.000   1.000

     atomic species   valence    mass     pseudopotential
        O              6.00    15.99940     O ( 1.00)
        Bi            15.00   208.98040     Bi( 1.00)
        Fe1           16.00    55.84500     Fe( 1.00)
        Fe2           16.00    55.84500     Fe( 1.00)

     Starting magnetic structure 
     atomic species   magnetization
        O            0.000
        Bi           0.000
        Fe1         -0.800
        Fe2          0.800


     Simplified LDA+U calculation (l_max = 2) with parameters (eV):
     atomic species    L          U    alpha       J0     beta
        Fe1            2     4.1000   0.0000   0.0000   0.0000
        Fe2            2     4.1000   0.0000   0.0000   0.0000



     No symmetry found


                                    s                        frac. trans.

      isym =  1     identity                                     

 cryst.   s( 1) = (     1          0          0      )
                  (     0          1          0      )
                  (     0          0          1      )

 cart.    s( 1) = (  1.0000000  0.0000000  0.0000000 )
                  (  0.0000000  1.0000000  0.0000000 )
                  (  0.0000000  0.0000000  1.0000000 )


     point group C_1 (1)    
     there are  1 classes
     the character table:

       E    
A      1.00

     the symmetry operations in each class and the name of the first element:

     E        1
          identity                                               

   Cartesian axes

     site n.     atom                  positions (alat units)
         1           Fe1 tau(   1) = (   0.0000000   0.0000000   1.9173194  )
         2           Fe1 tau(   2) = (  -0.0000005   0.5773506   2.3408318  )
         3           Fe1 tau(   3) = (   0.5000005   0.2886748   1.4987656  )
         4           Fe2 tau(   4) = (   0.5000005   0.2886748   0.2650306  )
         5           Fe2 tau(   5) = (   0.0000000   0.0000000   0.6836385  )
         6           Fe2 tau(   6) = (  -0.0000005   0.5773506   1.1071829  )
         7           Bi  tau(   7) = (   0.5000005   0.2886748   2.0704508  )
         8           Bi  tau(   8) = (  -0.0000005   0.5773506   1.6683657  )
         9           Bi  tau(   9) = (  -0.0000005   0.5773506   0.4345959  )
        10           Bi  tau(  10) = (   0.0000000   0.0000000   0.0112133  )
        11           Bi  tau(  11) = (   0.0000000   0.0000000   1.2449306  )
        12           Bi  tau(  12) = (   0.5000005   0.2886748   0.8366940  )
        13           O   tau(  13) = (  -0.3015234   0.6617768   2.1713309  )
        14           O   tau(  14) = (   0.0776467   0.2740092   2.1713309  )
        15           O   tau(  15) = (   0.2238783   0.7962639   2.1713309  )
        16           O   tau(  16) = (   0.4195843   0.5622547   1.7587968  )
        17           O   tau(  17) = (   0.3032805   0.0822442   1.7587968  )
        18           O   tau(  18) = (   0.7771337   0.2215274   1.7587968  )
        19           O   tau(  19) = (   0.6967279   0.0822438   0.5250654  )
        20           O   tau(  20) = (   0.5804103   0.5622631   0.5250654  )
        21           O   tau(  21) = (   0.2228602   0.2215194   0.5250654  )
        22           O   tau(  22) = (  -0.0757596   0.8510068   0.1130324  )
        23           O   tau(  23) = (  -0.1991137   0.3749123   0.1130324  )
        24           O   tau(  24) = (   0.2748733   0.5061317   0.1130324  )
        25           O   tau(  25) = (   0.1991050   0.3749017   1.3467955  )
        26           O   tau(  26) = (   0.0757731   0.8510045   1.3467955  )
        27           O   tau(  27) = (  -0.2748781   0.5061446   1.3467955  )
        28           O   tau(  28) = (  -0.0776631   0.2740052   0.9376559  )
        29           O   tau(  29) = (   0.3015366   0.6617637   0.9376559  )
        30           O   tau(  30) = (  -0.2238720   0.7962811   0.9376559  )

   Crystallographic axes

     site n.     atom                  positions (cryst. coord.)
         1           Fe1 tau(   1) = (  0.0000000  0.0000000  0.7770559  )
         2           Fe1 tau(   2) = (  0.3333330  0.6666670  0.9486980  )
         3           Fe1 tau(   3) = (  0.6666670  0.3333330  0.6074234  )
         4           Fe2 tau(   4) = (  0.6666670  0.3333330  0.1074122  )
         5           Fe2 tau(   5) = (  0.0000000  0.0000000  0.2770667  )
         6           Fe2 tau(   6) = (  0.3333330  0.6666670  0.4487218  )
         7           Bi  tau(   7) = (  0.6666670  0.3333330  0.8391174  )
         8           Bi  tau(   8) = (  0.3333330  0.6666670  0.6761593  )
         9           Bi  tau(   9) = (  0.3333330  0.6666670  0.1761341  )
        10           Bi  tau(  10) = (  0.0000000  0.0000000  0.0045446  )
        11           Bi  tau(  11) = (  0.0000000  0.0000000  0.5045485  )
        12           Bi  tau(  12) = (  0.6666670  0.3333330  0.3390974  )
        13           O   tau(  13) = (  0.0805536  0.7641541  0.8800023  )
        14           O   tau(  14) = (  0.2358459  0.3163985  0.8800023  )
        15           O   tau(  15) = (  0.6836015  0.9194464  0.8800023  )
        16           O   tau(  16) = (  0.7442022  0.6492358  0.7128095  )
        17           O   tau(  17) = (  0.3507642  0.0949674  0.7128095  )
        18           O   tau(  18) = (  0.9050326  0.2557978  0.7128095  )
        19           O   tau(  19) = (  0.7442114  0.0949669  0.2127998  )
        20           O   tau(  20) = (  0.9050331  0.6492455  0.2127998  )
        21           O   tau(  21) = (  0.3507545  0.2557886  0.2127998  )
        22           O   tau(  22) = (  0.4155694  0.9826580  0.0458101  )
        23           O   tau(  23) = (  0.0173420  0.4329115  0.0458101  )
        24           O   tau(  24) = (  0.5670885  0.5844306  0.0458101  )
        25           O   tau(  25) = (  0.4155546  0.4328992  0.5458326  )
        26           O   tau(  26) = (  0.5671008  0.9826554  0.5458326  )
        27           O   tau(  27) = (  0.0173446  0.5844454  0.5458326  )
        28           O   tau(  28) = (  0.0805338  0.3163939  0.3800155  )
        29           O   tau(  29) = (  0.6836061  0.7641389  0.3800155  )
        30           O   tau(  30) = (  0.2358611  0.9194662  0.3800155  )

     number of k points=    31  Methfessel-Paxton smearing, width (Ry)=  0.0100
                       cart. coord. in units 2pi/alat
        k(    1) = (   0.0000000   0.0000000   0.0000000), wk =   0.0322581
        k(    2) = (   0.0500000   0.0288675   0.0000000), wk =   0.0322581
        k(    3) = (   0.1000000   0.0577350   0.0000000), wk =   0.0322581
        k(    4) = (   0.1500000   0.0866025   0.0000000), wk =   0.0322581
        k(    5) = (   0.2000000   0.1154701   0.0000000), wk =   0.0322581
        k(    6) = (   0.2500000   0.1443376   0.0000000), wk =   0.0322581
        k(    7) = (   0.3000000   0.1732051   0.0000000), wk =   0.0322581
        k(    8) = (   0.3500000   0.2020726   0.0000000), wk =   0.0322581
        k(    9) = (   0.4000000   0.2309401   0.0000000), wk =   0.0322581
        k(   10) = (   0.4500000   0.2598076   0.0000000), wk =   0.0322581
        k(   11) = (   0.5000000   0.2886751   0.0000000), wk =   0.0322581
        k(   12) = (   0.5166667   0.2598076   0.0000000), wk =   0.0322581
        k(   13) = (   0.5333333   0.2309401   0.0000000), wk =   0.0322581
        k(   14) = (   0.5500000   0.2020726   0.0000000), wk =   0.0322581
        k(   15) = (   0.5666667   0.1732051   0.0000000), wk =   0.0322581
        k(   16) = (   0.5833333   0.1443376   0.0000000), wk =   0.0322581
        k(   17) = (   0.6000000   0.1154701   0.0000000), wk =   0.0322581
        k(   18) = (   0.6166667   0.0866025   0.0000000), wk =   0.0322581
        k(   19) = (   0.6333333   0.0577350   0.0000000), wk =   0.0322581
        k(   20) = (   0.6500000   0.0288675   0.0000000), wk =   0.0322581
        k(   21) = (   0.6666667   0.0000000   0.0000000), wk =   0.0322581
        k(   22) = (   0.6000000   0.0000000   0.0000000), wk =   0.0322581
        k(   23) = (   0.5333333   0.0000000   0.0000000), wk =   0.0322581
        k(   24) = (   0.4666667   0.0000000   0.0000000), wk =   0.0322581
        k(   25) = (   0.4000000   0.0000000   0.0000000), wk =   0.0322581
        k(   26) = (   0.3333333   0.0000000   0.0000000), wk =   0.0322581
        k(   27) = (   0.2666667   0.0000000   0.0000000), wk =   0.0322581
        k(   28) = (   0.2000000   0.0000000   0.0000000), wk =   0.0322581
        k(   29) = (   0.1333333   0.0000000   0.0000000), wk =   0.0322581
        k(   30) = (   0.0666667   0.0000000   0.0000000), wk =   0.0322581
        k(   31) = (   0.0000000   0.0000000   0.0000000), wk =   0.0322581

                       cryst. coord.
        k(    1) = (   0.0000000   0.0000000   0.0000000), wk =   0.0322581
        k(    2) = (   0.0500000   0.0000000   0.0000000), wk =   0.0322581
        k(    3) = (   0.1000000   0.0000000   0.0000000), wk =   0.0322581
        k(    4) = (   0.1500000   0.0000000   0.0000000), wk =   0.0322581
        k(    5) = (   0.2000000   0.0000000   0.0000000), wk =   0.0322581
        k(    6) = (   0.2500000   0.0000000   0.0000000), wk =   0.0322581
        k(    7) = (   0.3000000   0.0000000   0.0000000), wk =   0.0322581
        k(    8) = (   0.3500000   0.0000000   0.0000000), wk =   0.0322581
        k(    9) = (   0.4000000   0.0000000   0.0000000), wk =   0.0322581
        k(   10) = (   0.4500000   0.0000000   0.0000000), wk =   0.0322581
        k(   11) = (   0.5000000   0.0000000   0.0000000), wk =   0.0322581
        k(   12) = (   0.5166667  -0.0333333   0.0000000), wk =   0.0322581
        k(   13) = (   0.5333333  -0.0666667   0.0000000), wk =   0.0322581
        k(   14) = (   0.5500000  -0.1000000   0.0000000), wk =   0.0322581
        k(   15) = (   0.5666667  -0.1333333   0.0000000), wk =   0.0322581
        k(   16) = (   0.5833333  -0.1666667   0.0000000), wk =   0.0322581
        k(   17) = (   0.6000000  -0.2000000   0.0000000), wk =   0.0322581
        k(   18) = (   0.6166667  -0.2333333   0.0000000), wk =   0.0322581
        k(   19) = (   0.6333333  -0.2666667   0.0000000), wk =   0.0322581
        k(   20) = (   0.6500000  -0.3000000   0.0000000), wk =   0.0322581
        k(   21) = (   0.6666667  -0.3333333   0.0000000), wk =   0.0322581
        k(   22) = (   0.6000000  -0.3000000   0.0000000), wk =   0.0322581
        k(   23) = (   0.5333333  -0.2666667   0.0000000), wk =   0.0322581
        k(   24) = (   0.4666667  -0.2333333   0.0000000), wk =   0.0322581
        k(   25) = (   0.4000000  -0.2000000   0.0000000), wk =   0.0322581
        k(   26) = (   0.3333333  -0.1666667   0.0000000), wk =   0.0322581
        k(   27) = (   0.2666667  -0.1333333   0.0000000), wk =   0.0322581
        k(   28) = (   0.2000000  -0.1000000   0.0000000), wk =   0.0322581
        k(   29) = (   0.1333333  -0.0666667   0.0000000), wk =   0.0322581
        k(   30) = (   0.0666667  -0.0333333   0.0000000), wk =   0.0322581
        k(   31) = (   0.0000000   0.0000000   0.0000000), wk =   0.0322581

     Dense  grid:   236061 G-vectors     FFT dimensions: (  60,  60, 150)

     Smooth grid:    83311 G-vectors     FFT dimensions: (  45,  45, 108)

     Dynamical RAM for                 wfc:       4.66 MB

     Dynamical RAM for     wfc (w. buffer):       4.66 MB

     Dynamical RAM for             U proj.:       0.80 MB

     Dynamical RAM for  U proj. (w. buff.):       0.80 MB

     Dynamical RAM for           str. fact:       2.40 MB

     Dynamical RAM for           local pot:       0.00 MB

     Dynamical RAM for          nlocal pot:      11.93 MB

     Dynamical RAM for                qrad:       5.74 MB

     Dynamical RAM for          rho,v,vnew:       7.72 MB

     Dynamical RAM for           G-vectors:       2.36 MB

     Dynamical RAM for          h,s,v(r/c):       0.35 MB

     Dynamical RAM for          <psi|beta>:       1.21 MB

     Dynamical RAM for      wfcinit/wfcrot:      11.77 MB

     Dynamical RAM for           addusdens:     123.07 MB

     Estimated static dynamical RAM per process >      42.73 MB

     Estimated max dynamical RAM per process >     165.80 MB

     Estimated total dynamical RAM >     994.83 MB

     Check: negative core charge=   -0.000014
     Generating pointlists ...
     new r_m :   0.1435 (alat units)  1.5003 (a.u.) for type    1
     new r_m :   0.1728 (alat units)  1.8065 (a.u.) for type    2
     new r_m :   0.1435 (alat units)  1.5003 (a.u.) for type    3
     new r_m :   0.1435 (alat units)  1.5003 (a.u.) for type    4

     The potential is recalculated from file :
     /home/aldair1809/Documentos/QE/4BFO/temp_tipoA/bands/bifeo3.save/charge-density


     negative rho (up, down):  1.183E-01 1.183E-01
 --- in v_hubbard ---
Hubbard energy    0.6896
 -------
     Number of +U iterations with fixed ns =  0
     Starting occupations:
 --- enter write_ns ---
 LDA+U parameters:
U( 3)     =  4.10000000
U( 4)     =  4.10000000
atom    1   Tr[ns(na)] (up, down, total) =   0.96478  4.99067  5.95545
   spin  1
    eigenvalues: 
  0.105  0.118  0.118  0.311  0.311
    eigenvectors:
  1.000  0.000  0.000  0.000  0.000
  0.000  0.049  0.304  0.008  0.638
  0.000  0.304  0.049  0.638  0.008
  0.000  0.165  0.482  0.181  0.173
  0.000  0.482  0.165  0.173  0.181
    occupations:
  0.105 -0.000 -0.000 -0.000 -0.000
 -0.000  0.243 -0.000  0.057  0.073
 -0.000 -0.000  0.243  0.073 -0.057
 -0.000  0.057  0.073  0.187  0.000
 -0.000  0.073 -0.057  0.000  0.187
   spin  2
    eigenvalues: 
  0.998  0.998  0.998  0.999  0.999
    eigenvectors:
  0.000  0.000  1.000  0.000  0.000
  0.041  0.037  0.000  0.109  0.814
  0.037  0.041  0.000  0.814  0.109
  0.217  0.706  0.000  0.076  0.001
  0.706  0.217  0.000  0.001  0.076
    occupations:
  0.998 -0.000 -0.000 -0.000 -0.000
 -0.000  0.998 -0.000 -0.000 -0.000
 -0.000 -0.000  0.998 -0.000  0.000
 -0.000 -0.000 -0.000  0.998  0.000
 -0.000 -0.000  0.000  0.000  0.998
atomic mag. moment =  -4.02590
atom    2   Tr[ns(na)] (up, down, total) =   1.00260  4.98185  5.98445
   spin  1
    eigenvalues: 
  0.106  0.114  0.114  0.335  0.335
    eigenvectors:
  1.000  0.000  0.000  0.000  0.000
  0.000  0.292  0.044  0.435  0.228
  0.000  0.044  0.292  0.228  0.435
  0.000  0.065  0.598  0.001  0.335
  0.000  0.598  0.065  0.335  0.001
    occupations:
  0.106 -0.000 -0.000 -0.000 -0.000
 -0.000  0.260 -0.000 -0.066  0.081
 -0.000 -0.000  0.260  0.081  0.066
 -0.000 -0.066  0.081  0.188  0.000
 -0.000  0.081  0.066  0.000  0.188
   spin  2
    eigenvalues: 
  0.994  0.994  0.997  0.998  0.998
    eigenvectors:
  0.000  0.000  1.000  0.000  0.000
  0.329  0.361  0.000  0.235  0.076
  0.361  0.329  0.000  0.076  0.235
  0.000  0.310  0.000  0.058  0.631
  0.310  0.000  0.000  0.631  0.058
    occupations:
  0.997 -0.000 -0.000 -0.000 -0.000
 -0.000  0.995 -0.000  0.001 -0.001
 -0.000 -0.000  0.995 -0.001 -0.001
 -0.000  0.001 -0.001  0.997  0.000
 -0.000 -0.001 -0.001  0.000  0.997
atomic mag. moment =  -3.97925
atom    3   Tr[ns(na)] (up, down, total) =   1.02144  4.98156  6.00300
   spin  1
    eigenvalues: 
  0.121  0.121  0.145  0.318  0.318
    eigenvectors:
  0.000  0.000  1.000  0.000  0.000
  0.385  0.100  0.000  0.454  0.062
  0.100  0.385  0.000  0.062  0.454
  0.029  0.486  0.000  0.060  0.425
  0.486  0.029  0.000  0.425  0.060
    occupations:
  0.145 -0.000 -0.000 -0.000 -0.000
 -0.000  0.222 -0.000 -0.064  0.075
 -0.000 -0.000  0.222  0.075  0.064
 -0.000 -0.064  0.075  0.216  0.000
 -0.000  0.075  0.064  0.000  0.216
   spin  2
    eigenvalues: 
  0.994  0.994  0.997  0.998  0.998
    eigenvectors:
  0.000  0.000  1.000  0.000  0.000
  0.232  0.082  0.000  0.296  0.391
  0.082  0.232  0.000  0.391  0.296
  0.114  0.572  0.000  0.003  0.311
  0.572  0.114  0.000  0.311  0.003
    occupations:
  0.997 -0.000 -0.000 -0.000 -0.000
 -0.000  0.997 -0.000  0.001 -0.001
 -0.000 -0.000  0.997 -0.001 -0.001
 -0.000  0.001 -0.001  0.996  0.000
 -0.000 -0.001 -0.001  0.000  0.996
atomic mag. moment =  -3.96012
atom    4   Tr[ns(na)] (up, down, total) =   4.98156  1.02147  6.00303
   spin  1
    eigenvalues: 
  0.994  0.994  0.997  0.998  0.998
    eigenvectors:
  0.000  0.000  1.000  0.000  0.000
  0.001  0.313  0.000  0.000  0.686
  0.313  0.001  0.000  0.686  0.000
  0.189  0.497  0.000  0.109  0.205
  0.497  0.189  0.000  0.205  0.109
    occupations:
  0.997 -0.000 -0.000 -0.000 -0.000
 -0.000  0.997 -0.000 -0.001 -0.001
 -0.000 -0.000  0.997 -0.001  0.001
 -0.000 -0.001 -0.001  0.996  0.000
 -0.000 -0.001  0.001  0.000  0.996
   spin  2
    eigenvalues: 
  0.121  0.121  0.145  0.318  0.318
    eigenvectors:
  0.000  0.000  1.000  0.000  0.000
  0.034  0.451  0.000  0.014  0.501
  0.451  0.034  0.000  0.501  0.014
  0.160  0.356  0.000  0.197  0.288
  0.356  0.160  0.000  0.288  0.197
    occupations:
  0.145 -0.000 -0.000 -0.000 -0.000
 -0.000  0.222 -0.000  0.064  0.075
 -0.000 -0.000  0.222  0.075 -0.064
 -0.000  0.064  0.075  0.216  0.000
 -0.000  0.075 -0.064  0.000  0.216
atomic mag. moment =   3.96010
atom    5   Tr[ns(na)] (up, down, total) =   4.99067  0.96474  5.95541
   spin  1
    eigenvalues: 
  0.998  0.998  0.998  0.999  0.999
    eigenvectors:
  0.000  0.000  1.000  0.000  0.000
  0.073  0.004  0.000  0.194  0.729
  0.004  0.073  0.000  0.729  0.194
  0.208  0.715  0.000  0.043  0.034
  0.715  0.208  0.000  0.034  0.043
    occupations:
  0.998 -0.000 -0.000 -0.000 -0.000
 -0.000  0.998 -0.000  0.000 -0.000
 -0.000 -0.000  0.998 -0.000 -0.000
 -0.000  0.000 -0.000  0.998  0.000
 -0.000 -0.000 -0.000  0.000  0.998
   spin  2
    eigenvalues: 
  0.105  0.118  0.118  0.311  0.311
    eigenvectors:
  1.000  0.000  0.000  0.000  0.000
  0.000  0.315  0.038  0.481  0.165
  0.000  0.038  0.315  0.165  0.481
  0.000  0.066  0.581  0.006  0.348
  0.000  0.581  0.066  0.348  0.006
    occupations:
  0.105 -0.000 -0.000 -0.000 -0.000
 -0.000  0.243 -0.000 -0.057  0.073
 -0.000 -0.000  0.243  0.073  0.057
 -0.000 -0.057  0.073  0.187  0.000
 -0.000  0.073  0.057  0.000  0.187
atomic mag. moment =   4.02593
atom    6   Tr[ns(na)] (up, down, total) =   4.98186  1.00252  5.98437
   spin  1
    eigenvalues: 
  0.994  0.994  0.997  0.998  0.998
    eigenvectors:
  0.000  0.000  1.000  0.000  0.000
  0.000  0.690  0.000  0.029  0.282
  0.690  0.000  0.000  0.282  0.029
  0.145  0.165  0.000  0.131  0.559
  0.165  0.145  0.000  0.559  0.131
    occupations:
  0.997 -0.000 -0.000 -0.000 -0.000
 -0.000  0.995 -0.000 -0.001 -0.001
 -0.000 -0.000  0.995 -0.001  0.001
 -0.000 -0.001 -0.001  0.997  0.000
 -0.000 -0.001  0.001  0.000  0.997
   spin  2
    eigenvalues: 
  0.106  0.114  0.114  0.335  0.335
    eigenvectors:
  1.000  0.000  0.000  0.000  0.000
  0.000  0.045  0.291  0.005  0.659
  0.000  0.291  0.045  0.659  0.005
  0.000  0.157  0.507  0.172  0.164
  0.000  0.507  0.157  0.164  0.172
    occupations:
  0.106 -0.000 -0.000 -0.000 -0.000
 -0.000  0.260 -0.000  0.066  0.081
 -0.000 -0.000  0.260  0.081 -0.066
 -0.000  0.066  0.081  0.188  0.000
 -0.000  0.081 -0.066  0.000  0.188
atomic mag. moment =   3.97934
N of occupied +U levels =   35.885723
 --- exit write_ns ---
 Atomic wfc used for LDA+U Projector are NOT orthogonalized
     Starting wfcs are  204 randomized atomic wfcs

     Band Structure Calculation
     CG style diagonalization

     Computing kpt #:     1  of    62
     c_bands:  3 eigenvalues not converged
     total cpu time spent up to now is      406.7 secs

     Computing kpt #:     2  of    62
     total cpu time spent up to now is      670.5 secs

     Computing kpt #:     3  of    62
     total cpu time spent up to now is      950.5 secs

     Computing kpt #:     4  of    62
     total cpu time spent up to now is     1234.1 secs

     Computing kpt #:     5  of    62
     c_bands:  1 eigenvalues not converged
     total cpu time spent up to now is     1514.1 secs

     Computing kpt #:     6  of    62
     c_bands:  1 eigenvalues not converged
     total cpu time spent up to now is     1794.6 secs

     Computing kpt #:     7  of    62
     c_bands:  1 eigenvalues not converged
     total cpu time spent up to now is     2074.7 secs

     Computing kpt #:     8  of    62
     c_bands:  1 eigenvalues not converged
     total cpu time spent up to now is     2359.9 secs

     Computing kpt #:     9  of    62
     total cpu time spent up to now is     2641.8 secs

     Computing kpt #:    10  of    62
     c_bands:  1 eigenvalues not converged
     total cpu time spent up to now is     2924.0 secs

     Computing kpt #:    11  of    62
     c_bands:  1 eigenvalues not converged
     total cpu time spent up to now is     3206.1 secs

     Computing kpt #:    12  of    62
     c_bands:  1 eigenvalues not converged
     total cpu time spent up to now is     3489.4 secs

     Computing kpt #:    13  of    62
     c_bands:  1 eigenvalues not converged
     total cpu time spent up to now is     3776.0 secs

     Computing kpt #:    14  of    62
     total cpu time spent up to now is     4063.6 secs

     Computing kpt #:    15  of    62
     c_bands:  1 eigenvalues not converged
     total cpu time spent up to now is     4350.5 secs

     Computing kpt #:    16  of    62
     c_bands:  1 eigenvalues not converged
     total cpu time spent up to now is     4636.9 secs

     Computing kpt #:    17  of    62
     c_bands:  1 eigenvalues not converged
     total cpu time spent up to now is     4918.4 secs

     Computing kpt #:    18  of    62
     c_bands:  1 eigenvalues not converged
     total cpu time spent up to now is     5197.2 secs

     Computing kpt #:    19  of    62
     c_bands:  1 eigenvalues not converged
     total cpu time spent up to now is     5476.1 secs

     Computing kpt #:    20  of    62
     c_bands:  2 eigenvalues not converged
     total cpu time spent up to now is     5754.3 secs

     Computing kpt #:    21  of    62
     c_bands:  2 eigenvalues not converged
     total cpu time spent up to now is     6029.6 secs

     Computing kpt #:    22  of    62
     c_bands:  1 eigenvalues not converged
     total cpu time spent up to now is     6308.9 secs

     Computing kpt #:    23  of    62
     total cpu time spent up to now is     6571.6 secs

     Computing kpt #:    24  of    62
     total cpu time spent up to now is     6835.4 secs

     Computing kpt #:    25  of    62
     total cpu time spent up to now is     7085.8 secs

     Computing kpt #:    26  of    62
     total cpu time spent up to now is     7352.3 secs

     Computing kpt #:    27  of    62
     c_bands:  1 eigenvalues not converged
     total cpu time spent up to now is     7630.8 secs

     Computing kpt #:    28  of    62
     c_bands:  1 eigenvalues not converged
     total cpu time spent up to now is     7910.4 secs

     Computing kpt #:    29  of    62
     total cpu time spent up to now is     8173.5 secs

     Computing kpt #:    30  of    62
     total cpu time spent up to now is     8436.2 secs

     Computing kpt #:    31  of    62
     c_bands:  3 eigenvalues not converged
     total cpu time spent up to now is     8719.0 secs

     Computing kpt #:    32  of    62
     c_bands:  2 eigenvalues not converged
     total cpu time spent up to now is     9000.7 secs

     Computing kpt #:    33  of    62
     total cpu time spent up to now is     9267.7 secs

     Computing kpt #:    34  of    62
     total cpu time spent up to now is     9528.5 secs

     Computing kpt #:    35  of    62
     total cpu time spent up to now is     9809.1 secs

     Computing kpt #:    36  of    62
     c_bands:  1 eigenvalues not converged
     total cpu time spent up to now is    10088.1 secs

     Computing kpt #:    37  of    62
     c_bands:  1 eigenvalues not converged
     total cpu time spent up to now is    10369.4 secs

     Computing kpt #:    38  of    62
     c_bands:  1 eigenvalues not converged
     total cpu time spent up to now is    10652.3 secs

     Computing kpt #:    39  of    62
     c_bands:  1 eigenvalues not converged
     total cpu time spent up to now is    10931.6 secs

     Computing kpt #:    40  of    62
     total cpu time spent up to now is    11197.0 secs

     Computing kpt #:    41  of    62
     c_bands:  1 eigenvalues not converged
     total cpu time spent up to now is    11480.6 secs

     Computing kpt #:    42  of    62
     c_bands:  1 eigenvalues not converged
     total cpu time spent up to now is    11763.1 secs

     Computing kpt #:    43  of    62
     c_bands:  1 eigenvalues not converged
     total cpu time spent up to now is    12047.8 secs

     Computing kpt #:    44  of    62
     c_bands:  1 eigenvalues not converged
     total cpu time spent up to now is    12331.2 secs

     Computing kpt #:    45  of    62
     c_bands:  1 eigenvalues not converged
     total cpu time spent up to now is    12619.6 secs

     Computing kpt #:    46  of    62
     total cpu time spent up to now is    12902.2 secs

     Computing kpt #:    47  of    62
     c_bands:  1 eigenvalues not converged
     total cpu time spent up to now is    13188.8 secs

     Computing kpt #:    48  of    62
     c_bands:  1 eigenvalues not converged
     total cpu time spent up to now is    13469.7 secs

     Computing kpt #:    49  of    62
     c_bands:  1 eigenvalues not converged
     total cpu time spent up to now is    13749.7 secs

     Computing kpt #:    50  of    62
     c_bands:  1 eigenvalues not converged
     total cpu time spent up to now is    14069.3 secs

     Computing kpt #:    51  of    62
     c_bands:  2 eigenvalues not converged
     total cpu time spent up to now is    14401.4 secs

     Computing kpt #:    52  of    62
     c_bands:  2 eigenvalues not converged
     total cpu time spent up to now is    14704.2 secs

     Computing kpt #:    53  of    62
     total cpu time spent up to now is    15037.3 secs

     Computing kpt #:    54  of    62
     c_bands:  1 eigenvalues not converged
     total cpu time spent up to now is    15387.2 secs

     Computing kpt #:    55  of    62
     total cpu time spent up to now is    15736.6 secs

     Computing kpt #:    56  of    62
     total cpu time spent up to now is    16047.2 secs

     Computing kpt #:    57  of    62
     total cpu time spent up to now is    16338.4 secs

     Computing kpt #:    58  of    62
     c_bands:  1 eigenvalues not converged
     total cpu time spent up to now is    16703.0 secs

     Computing kpt #:    59  of    62
     total cpu time spent up to now is    16991.0 secs

     Computing kpt #:    60  of    62
     total cpu time spent up to now is    17260.6 secs

     Computing kpt #:    61  of    62
     total cpu time spent up to now is    17567.1 secs

     Computing kpt #:    62  of    62
     c_bands:  3 eigenvalues not converged
     total cpu time spent up to now is    17849.7 secs

     ethr =  3.40E-11,  avg # of iterations = 48.9

     total cpu time spent up to now is    17849.7 secs

     End of band structure calculation

 ------ SPIN UP ------------


          k = 0.0000 0.0000 0.0000 ( 10443 PWs)   bands (ev):

   -79.4783 -79.2877 -79.2388 -74.1940 -74.0718 -74.0558 -45.4707 -45.4190
   -45.4190 -45.2771 -45.2767 -45.2363 -45.2363 -45.1686 -45.1686 -40.3296
   -40.2799 -40.2799 -40.2086 -40.2059 -40.1620 -40.1619 -40.1447 -40.1447
   -10.5781 -10.5781 -10.5543 -10.5543 -10.5399 -10.5297 -10.5118 -10.5118
   -10.4957 -10.4957 -10.4886 -10.4886 -10.4663 -10.4663 -10.4417 -10.4318
   -10.4188 -10.4188 -10.4085 -10.4085 -10.3988 -10.3988 -10.3935 -10.3879
   -10.3879 -10.3857 -10.3601 -10.3601 -10.3502 -10.3502  -7.2733  -6.8796
    -6.7670  -5.9279  -5.8566  -5.5595  -5.5594  -5.4498  -5.4497  -5.3496
    -5.3496  -5.2916  -5.2252  -5.2251  -4.9919  -4.9918  -4.8361  -4.8360
     1.6471   1.7725   1.8276   2.5200   2.6347   3.4247   4.1707   4.1707
     4.3096   4.3097   4.6586   4.6586   4.8732   4.8732   4.8953   5.0293
     5.0832   5.1382   5.1382   5.4766   5.5240   5.5240   6.1940   6.3376
     6.3376   6.4679   6.7606   6.7607   6.9047   7.0446   7.0446   7.3441
     7.4026   7.4027   7.5139   7.6015   7.8228   7.8229   8.1120   8.1121
     8.3461   8.4387   8.4387   8.4439   8.9375   8.9376   9.1744   9.1745
     9.3813   9.4289   9.4290   9.4598   9.6887   9.6888  10.0637  10.0637
    10.1644  10.1644  10.1684  10.2154  10.2154  10.4495  10.4495  10.6655
    10.6655  10.8140  10.9507  11.1594  11.1825  11.1826  11.2583  11.2863
    11.3447  11.9435  11.9436  13.7433  13.7434  13.8598  13.9356  13.9977
    13.9977  14.0533  14.1816  14.1816  14.3044  14.3044  14.9855  14.9856
    15.6060  15.6392  15.6392  15.8350  15.9095  16.0426  17.2633  17.2634
    17.2905  17.2906  17.3728  17.3728  17.6554  17.7310  17.8061  17.8061

          k = 0.0500 0.0289 0.0000 ( 10429 PWs)   bands (ev):

   -79.4783 -79.2877 -79.2388 -74.1940 -74.0718 -74.0558 -45.4707 -45.4190
   -45.4190 -45.2771 -45.2767 -45.2363 -45.2363 -45.1686 -45.1686 -40.3296
   -40.2799 -40.2799 -40.2086 -40.2059 -40.1620 -40.1619 -40.1447 -40.1447
   -10.5778 -10.5772 -10.5548 -10.5544 -10.5398 -10.5297 -10.5110 -10.5108
   -10.4957 -10.4956 -10.4883 -10.4882 -10.4665 -10.4664 -10.4415 -10.4318
   -10.4187 -10.4187 -10.4089 -10.4088 -10.3989 -10.3986 -10.3934 -10.3883
   -10.3881 -10.3855 -10.3602 -10.3600 -10.3508 -10.3504  -7.2647  -6.8724
    -6.7597  -5.9265  -5.8559  -5.5657  -5.5620  -5.4541  -5.4522  -5.3554
    -5.3524  -5.2934  -5.2288  -5.2258  -4.9970  -4.9949  -4.8375  -4.8357
     1.6441   1.7698   1.8250   2.5104   2.6241   3.3939   4.1718   4.1793
     4.3098   4.3187   4.6645   4.6671   4.8584   4.8699   4.9003   5.0294
     5.0683   5.1411   5.1615   5.4851   5.5236   5.5269   6.1984   6.3595
     6.3609   6.4710   6.7460   6.7821   6.9244   7.0522   7.0871   7.3194
     7.3747   7.4131   7.5522   7.6152   7.8179   7.8488   8.1105   8.1328
     8.3608   8.4077   8.4459   8.4975   8.9161   8.9327   9.1596   9.1745
     9.3458   9.4343   9.4563   9.5078   9.6683   9.6831  10.0228  10.0576
    10.1283  10.1487  10.1599  10.1959  10.2205  10.4281  10.4418  10.6267
    10.6708  10.8400  10.9851  11.0503  11.1739  11.2071  11.2863  11.3126
    11.3833  11.9370  11.9432  13.7353  13.7452  13.8716  13.9248  13.9984
    14.0084  14.0601  14.1778  14.1781  14.3088  14.3119  14.9726  14.9844
    15.6013  15.6206  15.6355  15.8302  15.9123  16.0458  17.1862  17.2012
    17.2553  17.3077  17.3610  17.3760  17.6872  17.7031  17.7099  17.7502

          k = 0.1000 0.0577 0.0000 ( 10425 PWs)   bands (ev):

   -79.4783 -79.2877 -79.2388 -74.1940 -74.0718 -74.0558 -45.4707 -45.4190
   -45.4190 -45.2771 -45.2767 -45.2363 -45.2363 -45.1686 -45.1686 -40.3296
   -40.2799 -40.2799 -40.2086 -40.2059 -40.1620 -40.1619 -40.1447 -40.1447
   -10.5767 -10.5744 -10.5562 -10.5544 -10.5396 -10.5296 -10.5088 -10.5082
   -10.4956 -10.4954 -10.4876 -10.4871 -10.4670 -10.4669 -10.4409 -10.4320
   -10.4186 -10.4184 -10.4102 -10.4099 -10.3992 -10.3982 -10.3931 -10.3895
   -10.3885 -10.3852 -10.3608 -10.3598 -10.3525 -10.3510  -7.2391  -6.8512
    -6.7380  -5.9234  -5.8547  -5.5831  -5.5693  -5.4687  -5.4590  -5.3698
    -5.3602  -5.3024  -5.2387  -5.2264  -5.0115  -5.0034  -4.8421  -4.8348
     1.6360   1.7620   1.8184   2.4823   2.5941   3.3082   4.1749   4.1972
     4.3197   4.3430   4.6793   4.6868   4.8326   4.8638   4.9007   5.0218
     5.0667   5.1481   5.1937   5.5021   5.5221   5.5452   6.2167   6.4114
     6.4198   6.4899   6.7324   6.8394   6.9799   7.0771   7.1816   7.2753
     7.3386   7.4394   7.5937   7.6764   7.8077   7.9096   8.1069   8.1874
     8.3822   8.4163   8.4726   8.5634   8.8619   8.9146   9.1385   9.1805
     9.3137   9.4553   9.4919   9.5630   9.6339   9.6686   9.9045  10.0357
    10.0690  10.1042  10.1267  10.1604  10.2120  10.3595  10.4269  10.5710
    10.6644  10.8247  10.9670  11.0637  11.1591  11.2274  11.2796  11.3419
    11.4825  11.9177  11.9427  13.7196  13.7510  13.8838  13.9171  14.0037
    14.0260  14.0774  14.1692  14.1702  14.3197  14.3335  14.9359  14.9806
    15.5598  15.5958  15.6251  15.8118  15.9202  16.0533  17.0301  17.1058
    17.1438  17.2250  17.3817  17.4255  17.5111  17.5767  17.7490  17.7842

          k = 0.1500 0.0866 0.0000 ( 10456 PWs)   bands (ev):

   -79.4783 -79.2877 -79.2388 -74.1940 -74.0718 -74.0558 -45.4707 -45.4190
   -45.4190 -45.2771 -45.2767 -45.2363 -45.2363 -45.1686 -45.1686 -40.3296
   -40.2799 -40.2799 -40.2086 -40.2059 -40.1620 -40.1619 -40.1447 -40.1447
   -10.5753 -10.5702 -10.5582 -10.5538 -10.5392 -10.5292 -10.5061 -10.5052
   -10.4953 -10.4948 -10.4862 -10.4854 -10.4680 -10.4677 -10.4402 -10.4322
   -10.4185 -10.4181 -10.4117 -10.4111 -10.4000 -10.3981 -10.3930 -10.3909
   -10.3891 -10.3849 -10.3620 -10.3596 -10.3552 -10.3521  -7.1968  -6.8166
    -6.7025  -5.9228  -5.8549  -5.6074  -5.5811  -5.4965  -5.4693  -5.3882
    -5.3720  -5.3220  -5.2528  -5.2261  -5.0318  -5.0159  -4.8500  -4.8342
     1.6246   1.7491   1.8129   2.4372   2.5503   3.1827   4.1790   4.2075
     4.3569   4.3766   4.6834   4.7144   4.8201   4.8593   4.8865   5.0224
     5.0784   5.1576   5.2161   5.5076   5.5191   5.5973   6.2531   6.4557
     6.4889   6.5534   6.7586   6.9187   7.0489   7.1233   7.2441   7.2770
     7.3468   7.4766   7.6229   7.7517   7.8192   7.9763   8.1081   8.2632
     8.3685   8.4754   8.5253   8.6129   8.8181   8.8940   9.1138   9.2068
     9.3079   9.4619   9.4745   9.5563   9.6499   9.6792   9.7634   9.9815
    10.0167  10.0374  10.0586  10.1390  10.1872  10.2564  10.4054  10.5293
    10.6101  10.7533  10.9663  11.1185  11.1584  11.2269  11.2810  11.3893
    11.5556  11.8875  11.9426  13.7059  13.7609  13.8636  13.9396  14.0163
    14.0374  14.1004  14.1590  14.1670  14.3342  14.3663  14.8803  14.9738
    15.4806  15.5649  15.6109  15.7821  15.9285  16.0633  16.8097  16.9913
    17.0573  17.1156  17.3222  17.3744  17.4585  17.4739  17.6746  17.8089

          k = 0.2000 0.1155 0.0000 ( 10464 PWs)   bands (ev):

   -79.4783 -79.2877 -79.2388 -74.1940 -74.0718 -74.0558 -45.4707 -45.4190
   -45.4190 -45.2771 -45.2767 -45.2363 -45.2363 -45.1686 -45.1686 -40.3296
   -40.2799 -40.2799 -40.2086 -40.2059 -40.1620 -40.1619 -40.1447 -40.1447
   -10.5735 -10.5651 -10.5604 -10.5522 -10.5386 -10.5287 -10.5037 -10.5027
   -10.4947 -10.4934 -10.4839 -10.4829 -10.4691 -10.4686 -10.4393 -10.4323
   -10.4185 -10.4178 -10.4129 -10.4121 -10.4015 -10.3984 -10.3936 -10.3918
   -10.3896 -10.3846 -10.3639 -10.3597 -10.3577 -10.3533  -7.1386  -6.7695
    -6.6540  -5.9365  -5.8554  -5.6339  -5.5969  -5.5342  -5.4821  -5.4094
    -5.3873  -5.3492  -5.2682  -5.2277  -5.0533  -5.0304  -4.8613  -4.8348
     1.6118   1.7307   1.8162   2.3744   2.5027   3.0339   4.1822   4.2104
     4.4120   4.4183   4.6663   4.7499   4.8180   4.8574   4.8733   5.0403
     5.0845   5.1722   5.2308   5.4845   5.5335   5.6760   6.3048   6.4890
     6.5481   6.6553   6.8320   7.0055   7.0869   7.2003   7.2803   7.2978
     7.4351   7.5120   7.6712   7.7773   7.8950   8.0297   8.1298   8.3187
     8.3728   8.4855   8.6055   8.6575   8.8045   8.9085   9.0853   9.2052
     9.3334   9.3978   9.4550   9.5269   9.6480   9.6830   9.7256   9.8976
     9.9471   9.9676  10.0070  10.1086  10.1435  10.1701  10.3693  10.4737
    10.5439  10.7186  10.9555  11.1055  11.1721  11.2146  11.3054  11.4488
    11.5820  11.8510  11.9428  13.6976  13.7743  13.8400  13.9562  14.0313
    14.0440  14.1210  14.1531  14.1741  14.3521  14.4067  14.8106  14.9640
    15.3823  15.5034  15.5961  15.7579  15.9291  16.0801  16.5805  16.8486
    16.9227  16.9789  17.2318  17.3348  17.3858  17.4699  17.4976  17.8046

          k = 0.2500 0.1443 0.0000 ( 10430 PWs)   bands (ev):

   -79.4783 -79.2877 -79.2388 -74.1940 -74.0718 -74.0558 -45.4707 -45.4190
   -45.4190 -45.2771 -45.2767 -45.2363 -45.2363 -45.1686 -45.1686 -40.3296
   -40.2799 -40.2799 -40.2086 -40.2059 -40.1620 -40.1619 -40.1447 -40.1447
   -10.5720 -10.5618 -10.5596 -10.5492 -10.5379 -10.5279 -10.5027 -10.5011
   -10.4933 -10.4914 -10.4809 -10.4800 -10.4700 -10.4693 -10.4387 -10.4323
   -10.4192 -10.4178 -10.4134 -10.4124 -10.4034 -10.3996 -10.3951 -10.3918
   -10.3899 -10.3843 -10.3665 -10.3615 -10.3589 -10.3542  -7.0655  -6.7119
    -6.5940  -5.9791  -5.8531  -5.6676  -5.6150  -5.5669  -5.4976  -5.4356
    -5.4057  -5.3752  -5.2827  -5.2358  -5.0709  -5.0447  -4.8754  -4.8369
     1.5983   1.7118   1.8333   2.2948   2.4604   2.8754   4.1840   4.2162
     4.4494   4.4701   4.6570   4.7799   4.7904   4.8724   4.8872   5.0569
     5.0880   5.1902   5.2481   5.4462   5.5555   5.7725   6.3678   6.5242
     6.5989   6.7657   6.9259   7.0561   7.1555   7.2847   7.3069   7.3467
     7.5088   7.5645   7.7365   7.8216   7.9569   8.0831   8.1680   8.2793
     8.4591   8.4897   8.6502   8.7062   8.8263   8.9338   9.0435   9.1687
     9.2911   9.3748   9.4248   9.5216   9.6556   9.6759   9.7368   9.8112
     9.8779   9.9301   9.9514  10.0588  10.0949  10.1406  10.3198  10.4099
    10.5135  10.6977  10.9268  11.0613  11.1527  11.2123  11.3393  11.4936
    11.5617  11.8106  11.9415  13.6944  13.7879  13.8237  13.9577  14.0328
    14.0601  14.1283  14.1636  14.1856  14.3756  14.4508  14.7302  14.9517
    15.2699  15.4218  15.5787  15.7499  15.9196  16.1074  16.3621  16.6546
    16.7772  16.8077  17.2054  17.2641  17.2903  17.3655  17.4482  17.7388

          k = 0.3000 0.1732 0.0000 ( 10432 PWs)   bands (ev):

   -79.4783 -79.2877 -79.2388 -74.1940 -74.0718 -74.0558 -45.4707 -45.4190
   -45.4190 -45.2771 -45.2767 -45.2363 -45.2363 -45.1686 -45.1686 -40.3296
   -40.2799 -40.2799 -40.2086 -40.2059 -40.1620 -40.1619 -40.1447 -40.1447
   -10.5718 -10.5615 -10.5546 -10.5450 -10.5373 -10.5273 -10.5035 -10.4995
   -10.4915 -10.4892 -10.4780 -10.4770 -10.4704 -10.4695 -10.4385 -10.4323
   -10.4206 -10.4181 -10.4131 -10.4119 -10.4057 -10.4013 -10.3969 -10.3917
   -10.3902 -10.3841 -10.3696 -10.3642 -10.3600 -10.3545  -6.9790  -6.6468
    -6.5242  -6.0508  -5.8579  -5.7138  -5.6351  -5.5804  -5.5171  -5.4625
    -5.4234  -5.3955  -5.2953  -5.2533  -5.0824  -5.0553  -4.8916  -4.8403
     1.5822   1.7025   1.8655   2.2039   2.4262   2.7180   4.1854   4.2292
     4.4720   4.4930   4.6727   4.7438   4.8312   4.8808   4.9221   5.0552
     5.1006   5.2046   5.2748   5.4031   5.5785   5.8812   6.4418   6.5574
     6.6435   6.8627   7.0090   7.0956   7.2554   7.2944   7.3645   7.3982
     7.5532   7.6654   7.7872   7.8992   7.9858   8.1261   8.1940   8.3017
     8.4612   8.5687   8.6627   8.7259   8.8783   8.9075   8.9796   9.1699
     9.2060   9.2943   9.4473   9.5519   9.6289   9.6917   9.7361   9.7823
     9.8418   9.8945   9.9349  10.0133  10.0728  10.1334  10.2733  10.3592
    10.4977  10.6872  10.8893  10.9954  11.1270  11.1998  11.3690  11.4890
    11.5261  11.7614  11.9370  13.6943  13.7923  13.8251  13.9501  14.0257
    14.0784  14.1229  14.1783  14.2012  14.4050  14.4949  14.6424  14.9369
    15.1520  15.3469  15.5556  15.7563  15.9068  16.1309  16.1799  16.4455
    16.6299  16.6396  16.9792  17.2350  17.2947  17.3592  17.3836  17.6581

          k = 0.3500 0.2021 0.0000 ( 10426 PWs)   bands (ev):

   -79.4783 -79.2877 -79.2388 -74.1940 -74.0718 -74.0558 -45.4707 -45.4190
   -45.4190 -45.2771 -45.2767 -45.2363 -45.2363 -45.1686 -45.1686 -40.3296
   -40.2799 -40.2799 -40.2086 -40.2059 -40.1620 -40.1619 -40.1447 -40.1447
   -10.5727 -10.5597 -10.5500 -10.5404 -10.5369 -10.5269 -10.5052 -10.4976
   -10.4900 -10.4871 -10.4761 -10.4751 -10.4696 -10.4688 -10.4391 -10.4324
   -10.4221 -10.4185 -10.4128 -10.4111 -10.4076 -10.4030 -10.3985 -10.3916
   -10.3903 -10.3838 -10.3726 -10.3668 -10.3614 -10.3542  -6.8810  -6.5796
    -6.4470  -6.1421  -5.8950  -5.7467  -5.6614  -5.5893  -5.5306  -5.4777
    -5.4379  -5.4115  -5.3061  -5.2783  -5.0910  -5.0584  -4.9086  -4.8444
     1.5628   1.7110   1.9129   2.1090   2.3969   2.5717   4.1867   4.2512
     4.4609   4.5112   4.6422   4.7791   4.8653   4.8939   4.9546   5.0542
     5.1070   5.2153   5.2970   5.3714   5.5978   5.9977   6.5264   6.5779
     6.6772   6.9266   7.0695   7.1519   7.2693   7.3202   7.4155   7.4716
     7.6130   7.7467   7.8223   7.9691   8.0139   8.1342   8.2670   8.3633
     8.4730   8.5793   8.6445   8.7789   8.8348   8.8736   8.9650   9.0828
     9.1782   9.2829   9.4455   9.4865   9.6412   9.7013   9.7506   9.7993
     9.8452   9.8899   9.9563   9.9891  10.0741  10.1455  10.2363  10.3175
    10.4950  10.6945  10.8517  10.9217  11.0948  11.1780  11.3768  11.4383
    11.5000  11.6989  11.9293  13.6944  13.7919  13.8394  13.9415  14.0153
    14.0890  14.1141  14.1742  14.2304  14.4328  14.5297  14.5651  14.9187
    15.0423  15.2956  15.5236  15.7744  15.8965  16.0140  16.1724  16.2717
    16.4633  16.5047  16.7424  17.2101  17.2824  17.3412  17.3958  17.5825

          k = 0.4000 0.2309 0.0000 ( 10420 PWs)   bands (ev):

   -79.4783 -79.2877 -79.2388 -74.1940 -74.0718 -74.0558 -45.4707 -45.4190
   -45.4190 -45.2771 -45.2767 -45.2363 -45.2363 -45.1686 -45.1686 -40.3296
   -40.2799 -40.2799 -40.2086 -40.2059 -40.1620 -40.1619 -40.1447 -40.1447
   -10.5739 -10.5575 -10.5460 -10.5371 -10.5362 -10.5269 -10.5074 -10.4953
   -10.4889 -10.4853 -10.4750 -10.4740 -10.4686 -10.4671 -10.4400 -10.4326
   -10.4235 -10.4189 -10.4128 -10.4105 -10.4086 -10.4042 -10.3999 -10.3917
   -10.3902 -10.3835 -10.3751 -10.3692 -10.3627 -10.3539  -6.7745  -6.5212
    -6.3683  -6.2373  -5.9704  -5.7572  -5.6917  -5.6056  -5.5283  -5.4778
    -5.4483  -5.4233  -5.3193  -5.3025  -5.0988  -5.0543  -4.9247  -4.8483
     1.5439   1.7388   1.9728   2.0194   2.3547   2.4581   4.1876   4.2821
     4.4413   4.5130   4.6002   4.8224   4.8975   4.9189   4.9769   5.0602
     5.1046   5.2204   5.2901   5.3747   5.6109   6.1183   6.5663   6.6207
     6.6986   6.9383   7.1112   7.1935   7.3010   7.3215   7.4514   7.5433
     7.6720   7.7766   7.8468   7.9919   8.0904   8.1767   8.3395   8.4138
     8.4921   8.5674   8.6213   8.7324   8.8089   8.8306   8.9547   9.0291
     9.1920   9.2501   9.4217   9.4356   9.6571   9.6981   9.7593   9.8359
     9.8743   9.9022   9.9726  10.0073  10.0905  10.1708  10.2220  10.2831
    10.5072  10.7229  10.8260  10.8539  11.0539  11.1552  11.3321  11.4031
    11.4787  11.6274  11.9198  13.6939  13.7933  13.8583  13.9356  14.0003
    14.0817  14.1127  14.1648  14.2578  14.4255  14.5084  14.5851  14.8938
    14.9545  15.2710  15.4852  15.7985  15.8747  15.9360  16.1229  16.2246
    16.3063  16.3939  16.5388  17.1739  17.2304  17.3687  17.4500  17.5137

          k = 0.4500 0.2598 0.0000 ( 10406 PWs)   bands (ev):

   -79.4783 -79.2877 -79.2388 -74.1940 -74.0718 -74.0558 -45.4707 -45.4190
   -45.4190 -45.2771 -45.2767 -45.2363 -45.2363 -45.1686 -45.1686 -40.3296
   -40.2799 -40.2799 -40.2086 -40.2059 -40.1620 -40.1619 -40.1447 -40.1447
   -10.5747 -10.5557 -10.5428 -10.5376 -10.5333 -10.5273 -10.5092 -10.4934
   -10.4883 -10.4840 -10.4743 -10.4734 -10.4682 -10.4655 -10.4410 -10.4330
   -10.4244 -10.4191 -10.4131 -10.4103 -10.4088 -10.4046 -10.4009 -10.3919
   -10.3899 -10.3832 -10.3767 -10.3708 -10.3635 -10.3537  -6.6646  -6.4975
    -6.3525  -6.2506  -6.0620  -5.7675  -5.7106  -5.6174  -5.5255  -5.4687
    -5.4529  -5.4289  -5.3422  -5.3124  -5.1044  -5.0481  -4.9371  -4.8511
     1.5305   1.7832   1.9292   2.0550   2.2662   2.4140   4.1880   4.3166
     4.4269   4.4850   4.5860   4.8321   4.9312   4.9546   4.9923   5.0621
     5.0953   5.2168   5.2790   5.3899   5.6178   6.2330   6.5224   6.6991
     6.7140   6.9052   7.1512   7.2126   7.2965   7.3801   7.4728   7.5646
     7.6793   7.8042   7.8702   8.0055   8.1623   8.2471   8.3660   8.4398
     8.5283   8.5400   8.5981   8.6758   8.7488   8.8291   8.9370   9.0253
     9.1700   9.2531   9.3794   9.4134   9.6551   9.7071   9.7926   9.8573
     9.8922   9.9178   9.9709  10.0389  10.1135  10.1681  10.2490  10.2569
    10.5292  10.7451  10.7896  10.8584  11.0019  11.1465  11.2712  11.3674
    11.4727  11.5684  11.9111  13.6934  13.7944  13.8816  13.9288  13.9824
    14.0678  14.1156  14.1572  14.2763  14.3840  14.5176  14.6221  14.8539
    14.9086  15.2649  15.4529  15.7928  15.8509  15.9423  16.1015  16.1531
    16.2431  16.3088  16.3967  17.1175  17.2428  17.3778  17.4596  17.5093

          k = 0.5000 0.2887 0.0000 ( 10416 PWs)   bands (ev):

   -79.4783 -79.2877 -79.2388 -74.1940 -74.0718 -74.0558 -45.4707 -45.4190
   -45.4190 -45.2771 -45.2767 -45.2363 -45.2363 -45.1686 -45.1686 -40.3296
   -40.2799 -40.2799 -40.2086 -40.2059 -40.1620 -40.1619 -40.1447 -40.1447
   -10.5751 -10.5550 -10.5412 -10.5381 -10.5322 -10.5276 -10.5099 -10.4926
   -10.4881 -10.4835 -10.4741 -10.4732 -10.4682 -10.4649 -10.4415 -10.4331
   -10.4247 -10.4192 -10.4133 -10.4103 -10.4088 -10.4047 -10.4012 -10.3920
   -10.3898 -10.3830 -10.3774 -10.3714 -10.3639 -10.3535  -6.5792  -6.5363
    -6.3742  -6.1829  -6.1386  -5.7749  -5.7146  -5.6212  -5.5251  -5.4655
    -5.4523  -5.4283  -5.3550  -5.3146  -5.1064  -5.0451  -4.9419  -4.8520
     1.5257   1.8251   1.8743   2.1186   2.1916   2.4057   4.1881   4.3356
     4.4217   4.4641   4.5851   4.8324   4.9383   4.9753   5.0131   5.0476
     5.0913   5.2136   5.2766   5.3961   5.6199   6.2962   6.4817   6.7119
     6.7467   6.8792   7.1723   7.2166   7.2857   7.4184   7.4909   7.5539
     7.6586   7.8268   7.8844   8.0110   8.1837   8.3216   8.3417   8.4360
     8.5075   8.5730   8.5908   8.6517   8.7062   8.8476   8.9273   9.0391
     9.1248   9.2887   9.3433   9.4080   9.6509   9.7170   9.8099   9.8719
     9.8982   9.9138   9.9676  10.0556  10.1180  10.1757  10.2337  10.2701
    10.5422  10.7509  10.7617  10.9078  10.9546  11.1516  11.2372  11.3547
    11.4641  11.5497  11.9074  13.6933  13.7946  13.9000  13.9184  13.9738
    14.0619  14.1169  14.1543  14.2828  14.3664  14.5238  14.6407  14.8290
    14.8979  15.2647  15.4405  15.7772  15.8452  15.9852  16.0707  16.1248
    16.2222  16.2734  16.3512  17.0958  17.2557  17.3745  17.4436  17.5271

          k = 0.5167 0.2598 0.0000 ( 10430 PWs)   bands (ev):

   -79.4783 -79.2877 -79.2388 -74.1940 -74.0718 -74.0558 -45.4707 -45.4190
   -45.4190 -45.2771 -45.2767 -45.2363 -45.2363 -45.1686 -45.1686 -40.3296
   -40.2799 -40.2799 -40.2086 -40.2059 -40.1620 -40.1619 -40.1447 -40.1447
   -10.5748 -10.5549 -10.5414 -10.5382 -10.5324 -10.5276 -10.5096 -10.4926
   -10.4881 -10.4835 -10.4751 -10.4723 -10.4685 -10.4647 -10.4414 -10.4331
   -10.4248 -10.4191 -10.4135 -10.4101 -10.4087 -10.4047 -10.4013 -10.3921
   -10.3898 -10.3831 -10.3774 -10.3714 -10.3640 -10.3538  -6.5770  -6.5343
    -6.3724  -6.1829  -6.1377  -5.7789  -5.7213  -5.6144  -5.5284  -5.4669
    -5.4511  -5.4277  -5.3548  -5.3152  -5.1110  -5.0424  -4.9411  -4.8525
     1.5293   1.8263   1.8760   2.1154   2.1878   2.4009   4.1891   4.3363
     4.4217   4.4651   4.5884   4.8331   4.9400   4.9741   5.0112   5.0472
     5.0962   5.2134   5.2753   5.3946   5.6113   6.3015   6.4874   6.7109
     6.7526   6.8796   7.1731   7.2182   7.2867   7.4156   7.4880   7.5534
     7.6664   7.8249   7.8943   8.0103   8.1869   8.3200   8.3376   8.4427
     8.5015   8.5564   8.5985   8.6540   8.7040   8.8443   8.9270   9.0357
     9.1263   9.2941   9.3498   9.4068   9.6479   9.7218   9.8009   9.8642
     9.8929   9.9145   9.9703  10.0625  10.1192  10.1767  10.2326  10.2705
    10.5451  10.7474  10.7594  10.9004  10.9747  11.1481  11.2407  11.3543
    11.4617  11.5477  11.9044  13.6936  13.7955  13.8911  13.9221  13.9804
    14.0642  14.1173  14.1538  14.2825  14.3687  14.5217  14.6407  14.8278
    14.9019  15.2659  15.4409  15.7671  15.8287  15.9810  16.0560  16.1368
    16.2381  16.2728  16.3590  17.0974  17.2469  17.3658  17.4341  17.5233

          k = 0.5333 0.2309 0.0000 ( 10416 PWs)   bands (ev):

   -79.4783 -79.2877 -79.2388 -74.1940 -74.0718 -74.0558 -45.4707 -45.4190
   -45.4190 -45.2771 -45.2767 -45.2363 -45.2363 -45.1686 -45.1686 -40.3296
   -40.2799 -40.2799 -40.2086 -40.2059 -40.1620 -40.1619 -40.1447 -40.1447
   -10.5738 -10.5546 -10.5419 -10.5384 -10.5329 -10.5277 -10.5087 -10.4925
   -10.4881 -10.4834 -10.4766 -10.4714 -10.4691 -10.4640 -10.4410 -10.4328
   -10.4248 -10.4187 -10.4140 -10.4098 -10.4084 -10.4046 -10.4013 -10.3922
   -10.3899 -10.3830 -10.3773 -10.3713 -10.3643 -10.3544  -6.5704  -6.5281
    -6.3670  -6.1830  -6.1353  -5.7945  -5.7314  -5.6006  -5.5376  -5.4711
    -5.4475  -5.4261  -5.3544  -5.3170  -5.1227  -5.0362  -4.9388  -4.8538
     1.5400   1.8301   1.8809   2.1061   2.1766   2.3867   4.1918   4.3376
     4.4229   4.4678   4.5979   4.8351   4.9438   4.9700   5.0079   5.0478
     5.1079   5.2127   5.2713   5.3902   5.5875   6.3164   6.5038   6.7099
     6.7667   6.8818   7.1753   7.2225   7.2907   7.4045   7.4824   7.5552
     7.6871   7.8227   7.9169   8.0094   8.1956   8.3015   8.3456   8.4497
     8.4831   8.5340   8.6045   8.6578   8.6987   8.8341   8.9275   9.0284
     9.1324   9.3049   9.3664   9.4041   9.6414   9.7303   9.7750   9.8506
     9.8759   9.9242   9.9718  10.0724  10.1301  10.1787  10.2297  10.2725
    10.5515  10.7335  10.7581  10.8978  11.0130  11.1388  11.2501  11.3534
    11.4543  11.5420  11.8952  13.6940  13.7985  13.8739  13.9281  13.9953
    14.0712  14.1191  14.1528  14.2814  14.3754  14.5157  14.6405  14.8254
    14.9123  15.2690  15.4421  15.7385  15.7892  15.9671  16.0271  16.1605
    16.2474  16.2988  16.3817  17.1020  17.2202  17.3354  17.4191  17.5051

          k = 0.5500 0.2021 0.0000 ( 10408 PWs)   bands (ev):

   -79.4783 -79.2877 -79.2388 -74.1940 -74.0718 -74.0558 -45.4707 -45.4190
   -45.4190 -45.2771 -45.2767 -45.2363 -45.2363 -45.1686 -45.1686 -40.3296
   -40.2799 -40.2799 -40.2086 -40.2059 -40.1620 -40.1619 -40.1447 -40.1447
   -10.5722 -10.5540 -10.5427 -10.5388 -10.5337 -10.5279 -10.5074 -10.4924
   -10.4881 -10.4834 -10.4780 -10.4716 -10.4688 -10.4632 -10.4404 -10.4324
   -10.4250 -10.4181 -10.4145 -10.4094 -10.4080 -10.4046 -10.4015 -10.3926
   -10.3901 -10.3830 -10.3771 -10.3711 -10.3648 -10.3554  -6.5595  -6.5180
    -6.3582  -6.1838  -6.1314  -5.8243  -5.7342  -5.5892  -5.5504  -5.4765
    -5.4421  -5.4238  -5.3538  -5.3198  -5.1385  -5.0289  -4.9352  -4.8560
     1.5577   1.8361   1.8889   2.0912   2.1586   2.3641   4.1960   4.3376
     4.4275   4.4725   4.6119   4.8380   4.9437   4.9674   5.0051   5.0530
     5.1220   5.2121   5.2645   5.3831   5.5536   6.3381   6.5291   6.7104
     6.7833   6.8881   7.1788   7.2271   7.2995   7.3841   7.4805   7.5634
     7.7162   7.8227   7.9407   8.0104   8.2067   8.2799   8.3555   8.4251
     8.4703   8.5269   8.6066   8.6583   8.6944   8.8167   8.9327   9.0241
     9.1434   9.3137   9.3759   9.4087   9.6314   9.7215   9.7516   9.8312
     9.8689   9.9395   9.9701  10.0775  10.1469  10.1790  10.2327  10.2760
    10.5559  10.7101  10.7652  10.9063  11.0514  11.1293  11.2630  11.3527
    11.4416  11.5337  11.8793  13.6938  13.8040  13.8555  13.9352  14.0112
    14.0822  14.1233  14.1521  14.2794  14.3858  14.5061  14.6396  14.8242
    14.9263  15.2726  15.4432  15.6972  15.7413  15.9443  15.9971  16.1660
    16.2544  16.3489  16.4190  17.1073  17.1780  17.2822  17.4095  17.4701

          k = 0.5667 0.1732 0.0000 ( 10418 PWs)   bands (ev):

   -79.4783 -79.2877 -79.2388 -74.1940 -74.0718 -74.0558 -45.4707 -45.4190
   -45.4190 -45.2771 -45.2767 -45.2363 -45.2363 -45.1686 -45.1686 -40.3296
   -40.2799 -40.2799 -40.2086 -40.2059 -40.1620 -40.1619 -40.1447 -40.1447
   -10.5701 -10.5533 -10.5438 -10.5393 -10.5348 -10.5280 -10.5058 -10.4922
   -10.4882 -10.4833 -10.4795 -10.4728 -10.4680 -10.4624 -10.4398 -10.4320
   -10.4252 -10.4173 -10.4150 -10.4091 -10.4074 -10.4046 -10.4018 -10.3931
   -10.3902 -10.3830 -10.3769 -10.3709 -10.3654 -10.3569  -6.5444  -6.5040
    -6.3464  -6.1863  -6.1262  -5.8630  -5.7311  -5.5885  -5.5628  -5.4800
    -5.4357  -5.4209  -5.3533  -5.3235  -5.1562  -5.0220  -4.9309  -4.8592
     1.5819   1.8440   1.8994   2.0721   2.1349   2.3344   4.2011   4.3352
     4.4348   4.4814   4.6286   4.8413   4.9348   4.9696   5.0032   5.0648
     5.1352   5.2124   5.2552   5.3734   5.5154   6.3640   6.5607   6.7121
     6.7975   6.9011   7.1823   7.2291   7.3083   7.3666   7.4849   7.5780
     7.7492   7.8246   7.9567   8.0149   8.2110   8.2683   8.3411   8.3897
     8.4675   8.5336   8.6090   8.6531   8.6948   8.7952   8.9447   9.0277
     9.1573   9.3165   9.3648   9.4222   9.6091   9.6983   9.7314   9.8210
     9.8749   9.9543   9.9750  10.0811  10.1521  10.1773  10.2473  10.2834
    10.5536  10.6846  10.7829  10.9205  11.0680  11.1385  11.2767  11.3530
    11.4230  11.5245  11.8565  13.6926  13.8109  13.8391  13.9432  14.0251
    14.0949  14.1319  14.1533  14.2762  14.3991  14.4940  14.6373  14.8260
    14.9414  15.2735  15.4427  15.6532  15.6939  15.9162  15.9669  16.1388
    16.2831  16.4027  16.4681  17.0962  17.1397  17.2165  17.3794  17.4473

          k = 0.5833 0.1443 0.0000 ( 10406 PWs)   bands (ev):

   -79.4783 -79.2877 -79.2388 -74.1940 -74.0718 -74.0558 -45.4707 -45.4190
   -45.4190 -45.2771 -45.2767 -45.2363 -45.2363 -45.1686 -45.1686 -40.3296
   -40.2799 -40.2799 -40.2086 -40.2059 -40.1620 -40.1619 -40.1447 -40.1447
   -10.5676 -10.5524 -10.5449 -10.5399 -10.5359 -10.5283 -10.5041 -10.4920
   -10.4883 -10.4832 -10.4807 -10.4741 -10.4670 -10.4615 -10.4391 -10.4314
   -10.4254 -10.4168 -10.4150 -10.4088 -10.4069 -10.4044 -10.4020 -10.3938
   -10.3903 -10.3830 -10.3766 -10.3706 -10.3662 -10.3584  -6.5252  -6.4864
    -6.3324  -6.1921  -6.1202  -5.9051  -5.7246  -5.6015  -5.5739  -5.4785
    -5.4290  -5.4171  -5.3536  -5.3275  -5.1746  -5.0157  -4.9262  -4.8632
     1.6121   1.8529   1.9115   2.0503   2.1070   2.2993   4.2067   4.3304
     4.4408   4.4980   4.6461   4.8444   4.9219   4.9676   5.0072   5.0809
     5.1442   5.2147   5.2456   5.3619   5.4781   6.3925   6.5945   6.7140
     6.8086   6.9197   7.1801   7.2290   7.3051   7.3737   7.4964   7.5975
     7.7815   7.8285   7.9603   8.0217   8.2032   8.2620   8.2939   8.3770
     8.4718   8.5373   8.6174   8.6514   8.6987   8.7767   8.9616   9.0394
     9.1721   9.3084   9.3447   9.4252   9.5725   9.6696   9.7209   9.8183
     9.8943   9.9663   9.9916  10.0824  10.1474  10.1770  10.2527  10.3072
    10.5429  10.6627  10.8104  10.9339  11.0583  11.1689  11.2902  11.3537
    11.3999  11.5171  11.8263  13.6905  13.8111  13.8330  13.9517  14.0364
    14.1065  14.1442  14.1585  14.2718  14.4139  14.4808  14.6324  14.8320
    14.9564  15.2657  15.4399  15.6182  15.6520  15.8863  15.9354  16.0945
    16.3203  16.4577  16.5235  17.0410  17.1174  17.1657  17.3156  17.4536

          k = 0.6000 0.1155 0.0000 ( 10404 PWs)   bands (ev):

   -79.4783 -79.2877 -79.2388 -74.1940 -74.0718 -74.0558 -45.4707 -45.4190
   -45.4190 -45.2771 -45.2767 -45.2363 -45.2363 -45.1686 -45.1686 -40.3296
   -40.2799 -40.2799 -40.2086 -40.2059 -40.1620 -40.1619 -40.1447 -40.1447
   -10.5647 -10.5513 -10.5462 -10.5407 -10.5372 -10.5285 -10.5023 -10.4917
   -10.4887 -10.4831 -10.4816 -10.4756 -10.4662 -10.4607 -10.4385 -10.4308
   -10.4257 -10.4169 -10.4142 -10.4085 -10.4065 -10.4042 -10.4023 -10.3946
   -10.3904 -10.3829 -10.3764 -10.3703 -10.3671 -10.3600  -6.5023  -6.4656
    -6.3174  -6.2033  -6.1135  -5.9468  -5.7158  -5.6202  -5.5890  -5.4722
    -5.4227  -5.4118  -5.3558  -5.3310  -5.1926  -5.0103  -4.9214  -4.8679
     1.6475   1.8615   1.9236   2.0286   2.0773   2.2608   4.2126   4.3243
     4.4432   4.5226   4.6629   4.8458   4.9073   4.9620   5.0167   5.0961
     5.1468   5.2183   5.2416   5.3497   5.4446   6.4232   6.6251   6.7153
     6.8203   6.9384   7.1601   7.2364   7.3032   7.3928   7.5179   7.6198
     7.8049   7.8374   7.9518   8.0288   8.1894   8.2271   8.2630   8.3746
     8.4803   8.5295   8.6233   8.6733   8.7052   8.7673   8.9797   9.0569
     9.1851   9.2757   9.3285   9.4159   9.5333   9.6298   9.7296   9.8210
     9.9219   9.9793  10.0112  10.0807  10.1440  10.1776  10.2454  10.3410
    10.5251  10.6470  10.8454  10.9406  11.0466  11.1936  11.3051  11.3471
    11.3822  11.5145  11.7888  13.6882  13.8000  13.8406  13.9594  14.0460
    14.1173  14.1543  14.1711  14.2665  14.4272  14.4694  14.6240  14.8438
    14.9706  15.2409  15.4383  15.5977  15.6201  15.8574  15.9035  16.0422
    16.3609  16.5127  16.5798  16.9758  17.0511  17.1556  17.2547  17.4600

          k = 0.6167 0.0866 0.0000 ( 10416 PWs)   bands (ev):

   -79.4783 -79.2877 -79.2388 -74.1940 -74.0718 -74.0558 -45.4707 -45.4190
   -45.4190 -45.2771 -45.2767 -45.2363 -45.2363 -45.1686 -45.1686 -40.3296
   -40.2799 -40.2799 -40.2086 -40.2059 -40.1620 -40.1619 -40.1447 -40.1447
   -10.5617 -10.5505 -10.5473 -10.5416 -10.5385 -10.5287 -10.5006 -10.4915
   -10.4893 -10.4830 -10.4820 -10.4770 -10.4655 -10.4599 -10.4380 -10.4301
   -10.4260 -10.4173 -10.4130 -10.4084 -10.4063 -10.4043 -10.4023 -10.3956
   -10.3905 -10.3828 -10.3761 -10.3699 -10.3680 -10.3615  -6.4759  -6.4420
    -6.3042  -6.2216  -6.1060  -5.9847  -5.7054  -5.6391  -5.6081  -5.4637
    -5.4175  -5.4049  -5.3606  -5.3333  -5.2089  -5.0057  -4.9170  -4.8729
     1.6870   1.8673   1.9325   2.0107   2.0493   2.2213   4.2183   4.3179
     4.4430   4.5513   4.6788   4.8397   4.8957   4.9582   5.0271   5.1026
     5.1462   5.2211   5.2487   5.3383   5.4157   6.4559   6.6450   6.7170
     6.8371   6.9516   7.1262   7.2555   7.3098   7.4049   7.5508   7.6440
     7.8078   7.8524   7.9411   8.0331   8.1691   8.1841   8.2458   8.3755
     8.4845   8.5152   8.6348   8.7020   8.7213   8.7729   8.9943   9.0767
     9.1818   9.2303   9.3170   9.4066   9.4977   9.5875   9.7456   9.8316
     9.9429   9.9960  10.0295  10.0802  10.1452  10.1792  10.2324  10.3735
    10.5032  10.6374  10.8845  10.9390  11.0428  11.1948  11.3217  11.3313
    11.3804  11.5192  11.7449  13.6864  13.7882  13.8502  13.9651  14.0548
    14.1282  14.1626  14.1856  14.2609  14.4332  14.4658  14.6118  14.8631
    14.9843  15.1960  15.4446  15.5816  15.6057  15.8327  15.8743  15.9867
    16.4039  16.5652  16.6316  16.9162  16.9785  17.1096  17.2432  17.4394

          k = 0.6333 0.0577 0.0000 ( 10410 PWs)   bands (ev):

   -79.4783 -79.2877 -79.2388 -74.1940 -74.0718 -74.0558 -45.4707 -45.4190
   -45.4190 -45.2771 -45.2767 -45.2363 -45.2363 -45.1686 -45.1686 -40.3296
   -40.2799 -40.2799 -40.2086 -40.2059 -40.1620 -40.1619 -40.1447 -40.1447
   -10.5586 -10.5507 -10.5472 -10.5426 -10.5397 -10.5288 -10.4992 -10.4914
   -10.4900 -10.4829 -10.4821 -10.4782 -10.4649 -10.4593 -10.4376 -10.4296
   -10.4264 -10.4175 -10.4117 -10.4084 -10.4061 -10.4048 -10.4019 -10.3964
   -10.3906 -10.3827 -10.3757 -10.3696 -10.3688 -10.3628  -6.4464  -6.4164
    -6.3012  -6.2430  -6.0969  -6.0166  -5.6937  -5.6554  -5.6282  -5.4554
    -5.4133  -5.3970  -5.3676  -5.3351  -5.2222  -5.0020  -4.9133  -4.8776
     1.7282   1.8672   1.9326   2.0007   2.0294   2.1843   4.2234   4.3121
     4.4416   4.5791   4.6944   4.8191   4.8960   4.9561   5.0370   5.0948
     5.1494   5.2251   5.2618   5.3305   5.3908   6.4901   6.6483   6.7205
     6.8588   6.9573   7.0920   7.2822   7.3206   7.4033   7.5910   7.6690
     7.7870   7.8639   7.9446   8.0294   8.1406   8.1626   8.2299   8.3778
     8.4778   8.5028   8.6545   8.7205   8.7436   8.8032   8.9989   9.0840
     9.1380   9.2226   9.3038   9.4058   9.4693   9.5467   9.7653   9.8451
     9.9404  10.0252  10.0448  10.0835  10.1487  10.1816  10.2165  10.4012
    10.4803  10.6323  10.9143  10.9453  11.0461  11.1650  11.3213  11.3417
    11.3822  11.5335  11.6971  13.6855  13.7786  13.8582  13.9685  14.0630
    14.1384  14.1711  14.1959  14.2554  14.4309  14.4710  14.5975  14.8910
    14.9980  15.1372  15.4596  15.5640  15.6039  15.8167  15.8522  15.9321
    16.4478  16.6092  16.6714  16.8760  16.9136  17.0375  17.2683  17.4038

          k = 0.6500 0.0289 0.0000 ( 10442 PWs)   bands (ev):

   -79.4783 -79.2877 -79.2388 -74.1940 -74.0718 -74.0558 -45.4707 -45.4190
   -45.4190 -45.2771 -45.2767 -45.2363 -45.2363 -45.1686 -45.1686 -40.3296
   -40.2799 -40.2799 -40.2086 -40.2059 -40.1620 -40.1619 -40.1447 -40.1447
   -10.5559 -10.5521 -10.5461 -10.5436 -10.5409 -10.5290 -10.4982 -10.4914
   -10.4905 -10.4826 -10.4821 -10.4792 -10.4645 -10.4589 -10.4374 -10.4291
   -10.4268 -10.4178 -10.4106 -10.4087 -10.4060 -10.4053 -10.4016 -10.3971
   -10.3906 -10.3826 -10.3756 -10.3697 -10.3691 -10.3637  -6.4148  -6.3904
    -6.3255  -6.2527  -6.0844  -6.0428  -5.6817  -5.6671  -5.6456  -5.4489
    -5.4102  -5.3896  -5.3747  -5.3371  -5.2309  -4.9996  -4.9109  -4.8811
     1.7651   1.8628   1.9210   2.0004   2.0204   2.1556   4.2272   4.3080
     4.4401   4.6001   4.7094   4.7930   4.9047   4.9521   5.0478   5.0795
     5.1543   5.2291   5.2723   5.3308   5.3697   6.5226   6.6373   6.7244
     6.8779   6.9587   7.0665   7.3113   7.3315   7.3884   7.6335   7.6897
     7.7477   7.8734   7.9584   8.0160   8.1289   8.1488   8.2157   8.3816
     8.4665   8.4957   8.6698   8.7376   8.7623   8.8505   8.9755   9.0468
     9.1409   9.2218   9.2908   9.4133   9.4513   9.5136   9.7853   9.8534
     9.9265  10.0543  10.0585  10.0863  10.1532  10.1817  10.2022  10.4232
    10.4589  10.6303  10.9154  10.9830  11.0521  11.1161  11.3243  11.3560
    11.3803  11.5553  11.6513  13.6853  13.7723  13.8631  13.9699  14.0692
    14.1459  14.1780  14.2015  14.2502  14.4288  14.4756  14.5856  14.9253
    15.0128  15.0749  15.4788  15.5499  15.6009  15.8132  15.8423  15.8835
    16.4870  16.6320  16.6932  16.8577  16.8816  16.9674  17.3038  17.3716

          k = 0.6667 0.0000 0.0000 ( 10428 PWs)   bands (ev):

   -79.4783 -79.2877 -79.2388 -74.1940 -74.0718 -74.0558 -45.4707 -45.4190
   -45.4190 -45.2771 -45.2767 -45.2363 -45.2363 -45.1686 -45.1686 -40.3296
   -40.2799 -40.2799 -40.2086 -40.2059 -40.1620 -40.1619 -40.1447 -40.1447
   -10.5540 -10.5535 -10.5452 -10.5442 -10.5414 -10.5290 -10.4979 -10.4913
   -10.4907 -10.4825 -10.4820 -10.4797 -10.4644 -10.4587 -10.4374 -10.4289
   -10.4270 -10.4178 -10.4097 -10.4092 -10.4060 -10.4054 -10.4015 -10.3973
   -10.3906 -10.3826 -10.3755 -10.3699 -10.3691 -10.3640  -6.3877  -6.3691
    -6.3648  -6.2535  -6.0692  -6.0626  -5.6743  -5.6720  -5.6544  -5.4463
    -5.4090  -5.3860  -5.3783  -5.3384  -5.2338  -4.9987  -4.9101  -4.8824
     1.7811   1.8632   1.9095   2.0102   2.0109   2.1443   4.2286   4.3066
     4.4394   4.6083   4.7168   4.7800   4.9112   4.9479   5.0610   5.0642
     5.1565   5.2308   5.2754   5.3364   5.3577   6.5401   6.6270   6.7260
     6.8848   6.9601   7.0566   7.3313   7.3348   7.3740   7.6703   7.6823
     7.7258   7.8777   7.9675   8.0059   8.1312   8.1412   8.2090   8.3836
     8.4615   8.4931   8.6753   8.7436   8.7763   8.8855   8.9338   9.0360
     9.1496   9.2192   9.2855   9.4202   9.4435   9.5003   9.7963   9.8527
     9.9202  10.0581  10.0772  10.0836  10.1582  10.1761  10.1979  10.4377
    10.4439  10.6301  10.9145  11.0140  11.0489  11.0857  11.3272  11.3682
    11.3722  11.5700  11.6271  13.6854  13.7701  13.8647  13.9704  14.0717
    14.1489  14.1806  14.2037  14.2474  14.4288  14.4764  14.5810  14.9492
    15.0278  15.0311  15.4890  15.5450  15.5964  15.8182  15.8442  15.8550
    16.5051  16.6349  16.6984  16.8444  16.9080  16.9148  17.3281  17.3592

          k = 0.6000 0.0000 0.0000 ( 10412 PWs)   bands (ev):

   -79.4783 -79.2877 -79.2388 -74.1940 -74.0718 -74.0558 -45.4707 -45.4190
   -45.4190 -45.2771 -45.2767 -45.2363 -45.2363 -45.1686 -45.1686 -40.3296
   -40.2799 -40.2799 -40.2086 -40.2059 -40.1620 -40.1619 -40.1447 -40.1447
   -10.5572 -10.5526 -10.5471 -10.5431 -10.5395 -10.5287 -10.4987 -10.4923
   -10.4895 -10.4831 -10.4822 -10.4781 -10.4650 -10.4594 -10.4375 -10.4296
   -10.4263 -10.4176 -10.4116 -10.4083 -10.4060 -10.4049 -10.4016 -10.3967
   -10.3906 -10.3828 -10.3755 -10.3693 -10.3689 -10.3631  -6.4980  -6.3546
    -6.3163  -6.2423  -6.1025  -6.0092  -5.6756  -5.6668  -5.6324  -5.4583
    -5.4158  -5.3900  -5.3722  -5.3295  -5.2236  -5.0029  -4.9108  -4.8784
     1.7458   1.8287   1.9470   1.9906   2.0527   2.1828   4.2238   4.3098
     4.4439   4.5772   4.7109   4.8068   4.8836   4.9709   5.0262   5.1032
     5.1466   5.2195   5.2728   5.3217   5.3897   6.4674   6.6667   6.7194
     6.8724   6.9437   7.0870   7.2646   7.3391   7.4017   7.5913   7.7151
     7.7317   7.8752   7.9384   8.0366   8.1104   8.1708   8.2338   8.3829
     8.4660   8.5018   8.6423   8.6896   8.7454   8.8855   9.0114   9.0539
     9.1300   9.2279   9.3047   9.4031   9.4740   9.5372   9.7530   9.8724
     9.9304  10.0197  10.0537  10.0692  10.1354  10.1718  10.2315  10.4193
    10.4672  10.6263  10.8868  10.9698  11.0908  11.1355  11.3036  11.3325
    11.4058  11.5594  11.6847  13.6842  13.7783  13.8607  13.9678  14.0623
    14.1375  14.1642  14.2030  14.2592  14.4245  14.4836  14.5956  14.8655
    15.0675  15.0932  15.4659  15.5242  15.6405  15.8118  15.8866  15.9118
    16.4491  16.5889  16.7574  16.8153  16.9392  17.0141  17.3149  17.3403

          k = 0.5333 0.0000 0.0000 ( 10420 PWs)   bands (ev):

   -79.4783 -79.2877 -79.2388 -74.1940 -74.0718 -74.0558 -45.4707 -45.4190
   -45.4190 -45.2771 -45.2767 -45.2363 -45.2363 -45.1686 -45.1686 -40.3296
   -40.2799 -40.2799 -40.2086 -40.2059 -40.1620 -40.1619 -40.1447 -40.1447
   -10.5605 -10.5543 -10.5500 -10.5412 -10.5376 -10.5279 -10.4999 -10.4944
   -10.4881 -10.4842 -10.4823 -10.4756 -10.4665 -10.4613 -10.4378 -10.4308
   -10.4252 -10.4174 -10.4134 -10.4085 -10.4067 -10.4034 -10.4011 -10.3955
   -10.3907 -10.3833 -10.3749 -10.3684 -10.3673 -10.3613  -6.6312  -6.4073
    -6.3099  -6.1878  -6.0966  -5.9330  -5.6628  -5.6415  -5.6024  -5.4837
    -5.4379  -5.3875  -5.3598  -5.3088  -5.1985  -5.0151  -4.9074  -4.8706
     1.6943   1.7847   1.8970   2.0728   2.1186   2.2740   4.2153   4.3047
     4.4613   4.5293   4.7097   4.7973   4.8823   4.9821   4.9991   5.1137
     5.1511   5.1810   5.2811   5.3218   5.4282   6.3311   6.6812   6.7044
     6.8496   6.9173   7.1094   7.2140   7.3123   7.4085   7.5578   7.6432
     7.7245   7.8520   7.9065   8.0624   8.0919   8.2265   8.2658   8.3680
     8.4457   8.4777   8.6036   8.6546   8.7572   8.9084   9.0349   9.1030
     9.1208   9.2403   9.3659   9.4061   9.5152   9.6077   9.7079   9.8518
     9.9359   9.9561   9.9997  10.0465  10.1048  10.1370  10.2736  10.4045
    10.4803  10.6085  10.8380  11.0080  11.0752  11.1938  11.2898  11.3191
    11.4491  11.5939  11.7658  13.6810  13.7927  13.8598  13.9552  14.0474
    14.1036  14.1393  14.2016  14.2774  14.4222  14.5021  14.6239  14.7828
    15.1164  15.1786  15.4416  15.4968  15.6985  15.9167  15.9716  16.0142
    16.3686  16.5086  16.7908  16.9110  17.0464  17.1231  17.3272  17.3560

          k = 0.4667 0.0000 0.0000 ( 10409 PWs)   bands (ev):

   -79.4783 -79.2877 -79.2388 -74.1940 -74.0718 -74.0558 -45.4707 -45.4190
   -45.4190 -45.2771 -45.2767 -45.2363 -45.2363 -45.1686 -45.1686 -40.3296
   -40.2799 -40.2799 -40.2086 -40.2059 -40.1620 -40.1619 -40.1447 -40.1447
   -10.5634 -10.5565 -10.5531 -10.5411 -10.5370 -10.5270 -10.5006 -10.4970
   -10.4882 -10.4857 -10.4814 -10.4740 -10.4684 -10.4639 -10.4382 -10.4316
   -10.4240 -10.4173 -10.4142 -10.4090 -10.4072 -10.4018 -10.4001 -10.3943
   -10.3907 -10.3837 -10.3734 -10.3667 -10.3652 -10.3593  -6.7635  -6.4880
    -6.3730  -6.1101  -6.0419  -5.8479  -5.6408  -5.6103  -5.5747  -5.5028
    -5.4569  -5.3812  -5.3446  -5.2850  -5.1655  -5.0313  -4.8990  -4.8619
     1.6511   1.7535   1.8504   2.1436   2.2024   2.4060   4.2094   4.2781
     4.4810   4.5191   4.6739   4.7784   4.9038   4.9360   4.9926   5.0987
     5.1258   5.1778   5.2922   5.3427   5.4609   6.1752   6.6368   6.6662
     6.8021   6.8993   7.0824   7.1930   7.3033   7.4013   7.4827   7.5921
     7.6881   7.7722   7.8806   8.0045   8.1085   8.2160   8.2873   8.3303
     8.4284   8.4684   8.6115   8.6929   8.7899   8.9149   9.0296   9.1109
     9.1520   9.2635   9.4211   9.4650   9.5545   9.6639   9.7072   9.7729
     9.8915   9.9213   9.9611  10.0359  10.0663  10.1224  10.2691  10.3709
    10.4724  10.6173  10.8429  10.9976  11.0851  11.2445  11.3018  11.3568
    11.4967  11.6456  11.8437  13.6779  13.7964  13.8707  13.9370  14.0393
    14.0713  14.1227  14.1909  14.2861  14.4240  14.5142  14.6426  14.7639
    15.1721  15.2510  15.4306  15.5021  15.7890  16.0323  16.0798  16.1813
    16.3359  16.4597  16.8443  17.0729  17.1602  17.2233  17.3160  17.3792

          k = 0.4000 0.0000 0.0000 ( 10413 PWs)   bands (ev):

   -79.4783 -79.2877 -79.2388 -74.1940 -74.0718 -74.0558 -45.4707 -45.4190
   -45.4190 -45.2771 -45.2767 -45.2363 -45.2363 -45.1686 -45.1686 -40.3296
   -40.2799 -40.2799 -40.2086 -40.2059 -40.1620 -40.1619 -40.1447 -40.1447
   -10.5662 -10.5586 -10.5558 -10.5441 -10.5367 -10.5267 -10.5010 -10.4994
   -10.4895 -10.4878 -10.4801 -10.4745 -10.4702 -10.4667 -10.4383 -10.4320
   -10.4224 -10.4171 -10.4148 -10.4100 -10.4065 -10.4004 -10.3988 -10.3931
   -10.3906 -10.3840 -10.3711 -10.3645 -10.3629 -10.3576  -6.8879  -6.5753
    -6.4575  -6.0339  -5.9762  -5.7638  -5.6247  -5.5917  -5.5508  -5.4980
    -5.4525  -5.3743  -5.3276  -5.2616  -5.1290  -5.0457  -4.8875  -4.8533
     1.6225   1.7364   1.8188   2.2116   2.2866   2.5681   4.2039   4.2469
     4.4807   4.5437   4.6197   4.7776   4.8825   4.9089   4.9674   5.0521
     5.1266   5.1795   5.2807   5.3887   5.4881   6.0158   6.5538   6.6139
     6.7317   6.8764   7.0298   7.1582   7.3041   7.3393   7.3899   7.5725
     7.6157   7.6775   7.8480   7.9376   8.0619   8.1982   8.2369   8.3112
     8.3949   8.5172   8.6505   8.7361   8.8026   8.9134   9.0161   9.1523
     9.1776   9.2974   9.4315   9.5269   9.6067   9.6603   9.7433   9.7551
     9.8545   9.8934   9.9421  10.0042  10.0533  10.1358  10.2372  10.3423
    10.4654  10.6521  10.8668  10.9906  11.1403  11.2586  11.3283  11.4177
    11.5386  11.6934  11.9071  13.6761  13.7968  13.8640  13.9399  14.0308
    14.0626  14.1107  14.1739  14.2775  14.4185  14.4998  14.6673  14.8068
    15.2328  15.3261  15.4460  15.5318  15.9419  16.0519  16.1400  16.4091
    16.4246  16.5061  16.9615  17.2127  17.2446  17.3026  17.3182  17.3866

          k = 0.3333 0.0000 0.0000 ( 10415 PWs)   bands (ev):

   -79.4783 -79.2877 -79.2388 -74.1940 -74.0718 -74.0558 -45.4707 -45.4190
   -45.4190 -45.2771 -45.2767 -45.2363 -45.2363 -45.1686 -45.1686 -40.3296
   -40.2799 -40.2799 -40.2086 -40.2059 -40.1620 -40.1619 -40.1447 -40.1447
   -10.5690 -10.5602 -10.5577 -10.5490 -10.5371 -10.5272 -10.5014 -10.5008
   -10.4917 -10.4899 -10.4800 -10.4771 -10.4714 -10.4681 -10.4384 -10.4322
   -10.4206 -10.4166 -10.4152 -10.4111 -10.4044 -10.3993 -10.3972 -10.3920
   -10.3905 -10.3842 -10.3681 -10.3623 -10.3609 -10.3559  -6.9995  -6.6594
    -6.5421  -5.9721  -5.9189  -5.6947  -5.6127  -5.5832  -5.5289  -5.4682
    -5.4259  -5.3658  -5.3084  -5.2419  -5.0928  -5.0529  -4.8750  -4.8457
     1.6096   1.7319   1.8025   2.2814   2.3689   2.7479   4.1899   4.2341
     4.4626   4.5178   4.6223   4.7728   4.8541   4.8708   4.9388   5.0299
     5.1144   5.1875   5.2545   5.4373   5.5091   5.8648   6.4551   6.5607
     6.6570   6.8197   6.9698   7.1083   7.1811   7.2983   7.3516   7.5017
     7.5528   7.5836   7.7915   7.8603   8.0204   8.1239   8.2220   8.3006
     8.3698   8.5508   8.6103   8.7678   8.7730   8.9532   9.0533   9.1702
     9.2210   9.3192   9.4250   9.5560   9.6203   9.6571   9.7387   9.8381
     9.8768   9.9015   9.9482   9.9818  10.0683  10.1577  10.2273  10.3573
    10.4772  10.6817  10.9069  11.0235  11.1865  11.2492  11.3400  11.4629
    11.5703  11.7402  11.9458  13.6774  13.8023  13.8378  13.9577  14.0283
    14.0611  14.1053  14.1543  14.2515  14.4014  14.4624  14.7207  14.8679
    15.2979  15.4076  15.4982  15.5774  16.0057  16.1167  16.1815  16.5926
    16.6202  16.6893  17.1420  17.2157  17.2924  17.3196  17.3755  17.5475

          k = 0.2667 0.0000 0.0000 ( 10457 PWs)   bands (ev):

   -79.4783 -79.2877 -79.2388 -74.1940 -74.0718 -74.0558 -45.4707 -45.4190
   -45.4190 -45.2771 -45.2767 -45.2363 -45.2363 -45.1686 -45.1686 -40.3296
   -40.2799 -40.2799 -40.2086 -40.2059 -40.1620 -40.1619 -40.1447 -40.1447
   -10.5718 -10.5630 -10.5586 -10.5532 -10.5380 -10.5281 -10.5024 -10.5019
   -10.4939 -10.4922 -10.4821 -10.4812 -10.4706 -10.4682 -10.4389 -10.4323
   -10.4193 -10.4169 -10.4145 -10.4118 -10.4020 -10.3985 -10.3953 -10.3913
   -10.3902 -10.3845 -10.3650 -10.3604 -10.3592 -10.3543  -7.0950  -6.7344
    -6.6184  -5.9348  -5.8793  -5.6526  -5.5996  -5.5505  -5.5075  -5.4309
    -5.3978  -5.3515  -5.2865  -5.2295  -5.0610  -5.0476  -4.8628  -4.8398
     1.6103   1.7368   1.7992   2.3512   2.4484   2.9345   4.1770   4.2320
     4.4101   4.4743   4.6432   4.7714   4.8312   4.8475   4.9001   5.0339
     5.0926   5.1843   5.2328   5.4747   5.5236   5.7319   6.3601   6.5130
     6.5859   6.7138   6.8923   7.0505   7.0849   7.2274   7.3111   7.3932
     7.4734   7.5290   7.7165   7.7909   7.9717   8.0436   8.1596   8.3372
     8.3993   8.4557   8.6134   8.6973   8.7849   8.9178   9.1501   9.1963
     9.2723   9.3402   9.4228   9.5442   9.6351   9.6634   9.7408   9.8927
     9.9292   9.9428  10.0034  10.0276  10.1073  10.2079  10.2563  10.3964
    10.5286  10.7060  10.9452  11.0684  11.2126  11.2376  11.3166  11.4576
    11.5887  11.7977  11.9577  13.6840  13.7961  13.8298  13.9643  14.0285
    14.0569  14.1028  14.1425  14.2152  14.3767  14.4184  14.7885  14.9222
    15.3710  15.4865  15.5565  15.6508  15.9687  16.0971  16.4233  16.7912
    16.8181  16.8898  17.2165  17.2818  17.3649  17.3923  17.4273  17.7497

          k = 0.2000 0.0000 0.0000 ( 10461 PWs)   bands (ev):

   -79.4783 -79.2877 -79.2388 -74.1940 -74.0718 -74.0558 -45.4707 -45.4190
   -45.4190 -45.2771 -45.2767 -45.2363 -45.2363 -45.1686 -45.1686 -40.3296
   -40.2799 -40.2799 -40.2086 -40.2059 -40.1620 -40.1619 -40.1447 -40.1447
   -10.5743 -10.5681 -10.5579 -10.5547 -10.5389 -10.5289 -10.5048 -10.5040
   -10.4952 -10.4942 -10.4851 -10.4845 -10.4690 -10.4677 -10.4398 -10.4322
   -10.4187 -10.4177 -10.4127 -10.4114 -10.4003 -10.3982 -10.3936 -10.3909
   -10.3895 -10.3847 -10.3625 -10.3597 -10.3564 -10.3527  -7.1717  -6.7961
    -6.6815  -5.9218  -5.8598  -5.6205  -5.5864  -5.5040  -5.4864  -5.3988
    -5.3786  -5.3288  -5.2637  -5.2254  -5.0377  -5.0278  -4.8520  -4.8362
     1.6200   1.7473   1.8052   2.4165   2.5211   3.1153   4.1728   4.2258
     4.3544   4.4155   4.6660   4.7423   4.8255   4.8478   4.8858   5.0319
     5.0749   5.1663   5.2216   5.4961   5.5300   5.6255   6.2811   6.4733
     6.5171   6.5934   6.7934   6.9517   7.0710   7.1420   7.2594   7.3151
[...]

          k = 0.6000 0.0000 0.0000 ( 10412 PWs)   bands (ev):

   -79.4769 -79.2874 -79.2379 -74.1955 -74.0721 -74.0568 -45.4695 -45.4176
   -45.4176 -45.2765 -45.2764 -45.2360 -45.2360 -45.1677 -45.1677 -40.3309
   -40.2814 -40.2813 -40.2088 -40.2069 -40.1622 -40.1622 -40.1457 -40.1457
   -10.5564 -10.5521 -10.5477 -10.5429 -10.5398 -10.5294 -10.4989 -10.4917
   -10.4888 -10.4837 -10.4829 -10.4779 -10.4658 -10.4585 -10.4380 -10.4290
   -10.4265 -10.4173 -10.4119 -10.4087 -10.4061 -10.4050 -10.4013 -10.3963
   -10.3910 -10.3825 -10.3759 -10.3696 -10.3687 -10.3627  -6.4978  -6.3544
    -6.3158  -6.2431  -6.1025  -6.0093  -5.6754  -5.6667  -5.6321  -5.4582
    -5.4159  -5.3896  -5.3725  -5.3303  -5.2236  -5.0034  -4.9103  -4.8785
     1.7464   1.8284   1.9467   1.9909   2.0523   2.1831   4.2243   4.3106
     4.4437   4.5778   4.7112   4.8072   4.8841   4.9716   5.0270   5.1040
     5.1472   5.2200   5.2732   5.3222   5.3904   6.4671   6.6668   6.7197
     6.8724   6.9438   7.0874   7.2647   7.3392   7.4016   7.5915   7.7149
     7.7319   7.8749   7.9390   8.0371   8.1106   8.1710   8.2336   8.3826
     8.4662   8.5018   8.6426   8.6896   8.7455   8.8855   9.0113   9.0537
     9.1299   9.2277   9.3046   9.4030   9.4739   9.5370   9.7530   9.8727
     9.9304  10.0199  10.0533  10.0694  10.1356  10.1721  10.2318  10.4198
    10.4675  10.6263  10.8870  10.9696  11.0907  11.1349  11.3043  11.3330
    11.4058  11.5601  11.6850  13.6831  13.7775  13.8599  13.9668  14.0614
    14.1369  14.1638  14.2023  14.2583  14.4239  14.4826  14.5951  14.8650
    15.0669  15.0927  15.4655  15.5237  15.6403  15.8117  15.8864  15.9116
    16.4490  16.5889  16.7575  16.8153  16.9392  17.0140  17.3148  17.3403

          k = 0.5333 0.0000 0.0000 ( 10420 PWs)   bands (ev):

   -79.4769 -79.2874 -79.2379 -74.1955 -74.0721 -74.0568 -45.4695 -45.4176
   -45.4176 -45.2765 -45.2764 -45.2360 -45.2360 -45.1677 -45.1677 -40.3309
   -40.2814 -40.2813 -40.2088 -40.2069 -40.1622 -40.1622 -40.1457 -40.1457
   -10.5597 -10.5541 -10.5505 -10.5413 -10.5374 -10.5287 -10.4999 -10.4939
   -10.4876 -10.4847 -10.4830 -10.4754 -10.4673 -10.4605 -10.4384 -10.4302
   -10.4254 -10.4172 -10.4136 -10.4090 -10.4064 -10.4037 -10.4009 -10.3952
   -10.3910 -10.3830 -10.3753 -10.3681 -10.3677 -10.3609  -6.6311  -6.4073
    -6.3098  -6.1878  -6.0968  -5.9331  -5.6627  -5.6413  -5.6021  -5.4836
    -5.4382  -5.3871  -5.3601  -5.3096  -5.1985  -5.0156  -4.9072  -4.8706
     1.6947   1.7844   1.8969   2.0732   2.1180   2.2743   4.2158   4.3053
     4.4612   4.5299   4.7101   4.7977   4.8825   4.9828   4.9995   5.1145
     5.1517   5.1816   5.2815   5.3223   5.4288   6.3309   6.6813   6.7046
     6.8498   6.9172   7.1097   7.2142   7.3123   7.4084   7.5579   7.6432
     7.7245   7.8519   7.9070   8.0625   8.0922   8.2267   8.2655   8.3679
     8.4459   8.4778   8.6039   8.6546   8.7571   8.9084   9.0348   9.1030
     9.1205   9.2402   9.3658   9.4063   9.5151   9.6075   9.7078   9.8523
     9.9358   9.9565   9.9997  10.0462  10.1049  10.1372  10.2739  10.4049
    10.4805  10.6087  10.8379  11.0081  11.0754  11.1937  11.2901  11.3194
    11.4489  11.5948  11.7663  13.6800  13.7919  13.8589  13.9543  14.0465
    14.1028  14.1389  14.2011  14.2764  14.4215  14.5012  14.6233  14.7822
    15.1158  15.1781  15.4410  15.4963  15.6984  15.9169  15.9713  16.0139
    16.3685  16.5084  16.7908  16.9110  17.0464  17.1230  17.3272  17.3561

          k = 0.4667 0.0000 0.0000 ( 10409 PWs)   bands (ev):

   -79.4769 -79.2874 -79.2379 -74.1955 -74.0721 -74.0568 -45.4695 -45.4176
   -45.4176 -45.2765 -45.2764 -45.2360 -45.2360 -45.1677 -45.1677 -40.3309
   -40.2813 -40.2813 -40.2088 -40.2069 -40.1622 -40.1622 -40.1457 -40.1457
   -10.5626 -10.5566 -10.5535 -10.5415 -10.5362 -10.5279 -10.5005 -10.4966
   -10.4880 -10.4861 -10.4819 -10.4738 -10.4691 -10.4631 -10.4388 -10.4308
   -10.4242 -10.4171 -10.4144 -10.4094 -10.4070 -10.4021 -10.3999 -10.3940
   -10.3910 -10.3834 -10.3738 -10.3663 -10.3656 -10.3589  -6.7634  -6.4880
    -6.3730  -6.1098  -6.0421  -5.8481  -5.6406  -5.6098  -5.5746  -5.5027
    -5.4572  -5.3810  -5.3449  -5.2857  -5.1655  -5.0316  -4.8988  -4.8617
     1.6515   1.7532   1.8504   2.1439   2.2020   2.4062   4.2099   4.2786
     4.4812   4.5195   4.6745   4.7789   4.9041   4.9366   4.9931   5.0993
     5.1264   5.1786   5.2924   5.3434   5.4616   6.1749   6.6371   6.6661
     6.8024   6.8993   7.0823   7.1932   7.3034   7.4012   7.4826   7.5923
     7.6882   7.7723   7.8809   8.0045   8.1088   8.2163   8.2871   8.3303
     8.4283   8.4684   8.6117   8.6931   8.7898   8.9148   9.0296   9.1107
     9.1518   9.2633   9.4209   9.4653   9.5544   9.6637   9.7072   9.7732
     9.8916   9.9212   9.9614  10.0357  10.0662  10.1226  10.2693  10.3714
    10.4726  10.6176  10.8430  10.9977  11.0851  11.2447  11.3022  11.3569
    11.4964  11.6464  11.8443  13.6769  13.7956  13.8698  13.9361  14.0384
    14.0706  14.1222  14.1905  14.2852  14.4233  14.5134  14.6421  14.7632
    15.1715  15.2506  15.4301  15.5014  15.7890  16.0325  16.0796  16.1810
    16.3359  16.4595  16.8443  17.0729  17.1602  17.2231  17.3160  17.3792

          k = 0.4000 0.0000 0.0000 ( 10413 PWs)   bands (ev):

   -79.4769 -79.2874 -79.2379 -74.1955 -74.0721 -74.0568 -45.4695 -45.4176
   -45.4176 -45.2765 -45.2764 -45.2360 -45.2360 -45.1677 -45.1677 -40.3309
   -40.2813 -40.2813 -40.2088 -40.2069 -40.1622 -40.1622 -40.1457 -40.1457
   -10.5654 -10.5587 -10.5559 -10.5446 -10.5359 -10.5276 -10.5008 -10.4990
   -10.4897 -10.4881 -10.4805 -10.4745 -10.4705 -10.4659 -10.4390 -10.4311
   -10.4227 -10.4169 -10.4149 -10.4101 -10.4064 -10.4006 -10.3986 -10.3929
   -10.3909 -10.3837 -10.3715 -10.3642 -10.3634 -10.3571  -6.8878  -6.5754
    -6.4574  -6.0334  -5.9764  -5.7640  -5.6245  -5.5910  -5.5511  -5.4978
    -5.4528  -5.3742  -5.3281  -5.2622  -5.1291  -5.0460  -4.8874  -4.8531
     1.6228   1.7361   1.8189   2.2117   2.2864   2.5682   4.2044   4.2474
     4.4810   4.5441   4.6202   4.7781   4.8830   4.9093   4.9679   5.0525
     5.1274   5.1803   5.2808   5.3895   5.4888   6.0156   6.5542   6.6138
     6.7320   6.8765   7.0297   7.1582   7.3043   7.3394   7.3896   7.5728
     7.6160   7.6774   7.8482   7.9377   8.0621   8.1984   8.2370   8.3112
     8.3948   8.5170   8.6505   8.7363   8.8023   8.9135   9.0162   9.1518
     9.1776   9.2972   9.4314   9.5271   9.6066   9.6603   9.7433   9.7551
     9.8546   9.8933   9.9425  10.0043  10.0532  10.1359  10.2375  10.3427
    10.4657  10.6525  10.8672  10.9905  11.1402  11.2591  11.3282  11.4182
    11.5384  11.6941  11.9076  13.6750  13.7960  13.8630  13.9390  14.0298
    14.0620  14.1102  14.1735  14.2766  14.4177  14.4990  14.6668  14.8060
    15.2322  15.3257  15.4456  15.5310  15.9419  16.0518  16.1400  16.4091
    16.4245  16.5058  16.9615  17.2128  17.2447  17.3026  17.3180  17.3865

          k = 0.3333 0.0000 0.0000 ( 10415 PWs)   bands (ev):

   -79.4769 -79.2874 -79.2379 -74.1955 -74.0721 -74.0568 -45.4695 -45.4176
   -45.4176 -45.2765 -45.2764 -45.2360 -45.2360 -45.1677 -45.1677 -40.3309
   -40.2813 -40.2813 -40.2088 -40.2069 -40.1622 -40.1622 -40.1457 -40.1457
   -10.5683 -10.5602 -10.5577 -10.5497 -10.5362 -10.5281 -10.5010 -10.5004
   -10.4921 -10.4904 -10.4804 -10.4774 -10.4712 -10.4676 -10.4391 -10.4313
   -10.4209 -10.4165 -10.4152 -10.4111 -10.4045 -10.3995 -10.3970 -10.3920
   -10.3907 -10.3838 -10.3685 -10.3620 -10.3613 -10.3555  -6.9995  -6.6595
    -6.5421  -5.9717  -5.9192  -5.6946  -5.6125  -5.5827  -5.5292  -5.4680
    -5.4260  -5.3659  -5.3089  -5.2425  -5.0929  -5.0531  -4.8749  -4.8455
     1.6098   1.7316   1.8026   2.2815   2.3688   2.7479   4.1904   4.2347
     4.4630   4.5182   4.6227   4.7733   4.8544   4.8714   4.9391   5.0305
     5.1151   5.1883   5.2546   5.4381   5.5098   5.8646   6.4555   6.5606
     6.6573   6.8198   6.9697   7.1083   7.1814   7.2983   7.3515   7.5019
     7.5532   7.5836   7.7919   7.8604   8.0203   8.1243   8.2218   8.3009
     8.3698   8.5505   8.6104   8.7680   8.7728   8.9534   9.0536   9.1701
     9.2205   9.3190   9.4250   9.5558   9.6201   9.6571   9.7389   9.8381
     9.8768   9.9015   9.9484   9.9819  10.0683  10.1577  10.2277  10.3576
    10.4776  10.6821  10.9074  11.0233  11.1862  11.2496  11.3397  11.4635
    11.5703  11.7407  11.9464  13.6763  13.8015  13.8367  13.9568  14.0275
    14.0605  14.1047  14.1538  14.2506  14.4007  14.4615  14.7201  14.8671
    15.2972  15.4073  15.4979  15.5767  16.0056  16.1165  16.1816  16.5928
    16.6200  16.6889  17.1420  17.2157  17.2924  17.3196  17.3755  17.5474

          k = 0.2667 0.0000 0.0000 ( 10457 PWs)   bands (ev):

   -79.4769 -79.2874 -79.2379 -74.1955 -74.0721 -74.0568 -45.4695 -45.4176
   -45.4176 -45.2765 -45.2764 -45.2360 -45.2360 -45.1677 -45.1677 -40.3309
   -40.2813 -40.2813 -40.2088 -40.2069 -40.1622 -40.1622 -40.1457 -40.1457
   -10.5712 -10.5624 -10.5590 -10.5540 -10.5371 -10.5290 -10.5019 -10.5014
   -10.4945 -10.4928 -10.4824 -10.4815 -10.4704 -10.4679 -10.4396 -10.4315
   -10.4195 -10.4170 -10.4143 -10.4117 -10.4022 -10.3987 -10.3952 -10.3916
   -10.3901 -10.3841 -10.3655 -10.3606 -10.3589 -10.3539  -7.0950  -6.7344
    -6.6184  -5.9344  -5.8796  -5.6522  -5.5992  -5.5505  -5.5078  -5.4307
    -5.3977  -5.3518  -5.2872  -5.2300  -5.0612  -5.0478  -4.8627  -4.8395
     1.6104   1.7366   1.7993   2.3513   2.4484   2.9345   4.1775   4.2326
     4.4105   4.4747   4.6435   4.7719   4.8314   4.8480   4.9004   5.0345
     5.0932   5.1851   5.2331   5.4754   5.5242   5.7318   6.3605   6.5129
     6.5861   6.7139   6.8922   7.0505   7.0852   7.2275   7.3112   7.3932
     7.4734   7.5293   7.7171   7.7908   7.9717   8.0439   8.1595   8.3374
     8.3993   8.4557   8.6132   8.6974   8.7848   8.9177   9.1501   9.1966
     9.2719   9.3401   9.4227   9.5439   9.6348   9.6634   9.7408   9.8927
     9.9294   9.9426  10.0036  10.0277  10.1075  10.2081  10.2567  10.3968
    10.5291  10.7064  10.9456  11.0683  11.2122  11.2379  11.3165  11.4581
    11.5889  11.7982  11.9583  13.6830  13.7953  13.8288  13.9633  14.0279
    14.0561  14.1024  14.1418  14.2144  14.3760  14.4175  14.7877  14.9213
    15.3703  15.4863  15.5559  15.6504  15.9686  16.0970  16.4234  16.7915
    16.8179  16.8896  17.2164  17.2818  17.3650  17.3923  17.4273  17.7498

          k = 0.2000 0.0000 0.0000 ( 10461 PWs)   bands (ev):

   -79.4769 -79.2874 -79.2379 -74.1955 -74.0721 -74.0568 -45.4695 -45.4176
   -45.4176 -45.2765 -45.2764 -45.2360 -45.2360 -45.1677 -45.1677 -40.3309
   -40.2813 -40.2813 -40.2088 -40.2069 -40.1622 -40.1622 -40.1457 -40.1457
   -10.5739 -10.5676 -10.5584 -10.5552 -10.5380 -10.5298 -10.5043 -10.5034
   -10.4956 -10.4947 -10.4853 -10.4848 -10.4687 -10.4674 -10.4404 -10.4315
   -10.4188 -10.4178 -10.4126 -10.4114 -10.4005 -10.3983 -10.3937 -10.3911
   -10.3893 -10.3843 -10.3630 -10.3601 -10.3560 -10.3524  -7.1717  -6.7961
    -6.6815  -5.9214  -5.8600  -5.6200  -5.5858  -5.5042  -5.4867  -5.3986
    -5.3784  -5.3292  -5.2644  -5.2260  -5.0380  -5.0280  -4.8519  -4.8360
     1.6201   1.7471   1.8053   2.4165   2.5211   3.1153   4.1733   4.2263
     4.3548   4.4159   4.6663   4.7428   4.8258   4.8480   4.8862   5.0322
     5.0755   5.1670   5.2221   5.4968   5.5306   5.6255   6.2814   6.4732
     6.5173   6.5936   6.7933   6.9519   7.0713   7.1421   7.2594   7.3149
     7.3705   7.4911   7.6448   7.7609   7.8678   7.9955   8.1155   8.3035
     8.3681   8.4738   8.5685   8.6167   8.8228   8.8641   9.1443   9.2052
     9.3211   9.4129   9.4671   9.5251   9.6721   9.6937   9.7106   9.9666
     9.9858   9.9926  10.0687  10.0988  10.1668  10.2869  10.3231  10.4488
    10.6184  10.7300  10.9672  11.1014  11.1891  11.2398  11.2862  11.4089
    11.5742  11.8589  11.9529  13.6953  13.7716  13.8512  13.9501  14.0167
    14.0512  14.0945  14.1485  14.1817  14.3494  14.3751  14.8580  14.9573
    15.4551  15.5499  15.5937  15.7370  15.9410  16.0727  16.6946  16.9656
    16.9876  17.0519  17.2999  17.3450  17.4126  17.4480  17.6082  17.8109

          k = 0.1333 0.0000 0.0000 ( 10437 PWs)   bands (ev):

   -79.4769 -79.2874 -79.2379 -74.1955 -74.0721 -74.0568 -45.4695 -45.4176
   -45.4176 -45.2765 -45.2764 -45.2360 -45.2360 -45.1677 -45.1677 -40.3309
   -40.2813 -40.2813 -40.2088 -40.2069 -40.1622 -40.1622 -40.1457 -40.1457
   -10.5759 -10.5729 -10.5568 -10.5551 -10.5386 -10.5304 -10.5076 -10.5069
   -10.4958 -10.4955 -10.4876 -10.4871 -10.4672 -10.4667 -10.4413 -10.4314
   -10.4187 -10.4184 -10.4106 -10.4101 -10.3995 -10.3983 -10.3935 -10.3897
   -10.3886 -10.3846 -10.3614 -10.3601 -10.3529 -10.3511  -7.2277  -6.8419
    -6.7284  -5.9220  -5.8550  -5.5897  -5.5718  -5.4717  -5.4667  -5.3748
    -5.3636  -5.3068  -5.2444  -5.2267  -5.0164  -5.0084  -4.8433  -4.8348
     1.6329   1.7592   1.8154   2.4708   2.5809   3.2728   4.1734   4.2081
     4.3198   4.3594   4.6759   4.7025   4.8279   4.8609   4.8978   5.0252
     5.0651   5.1527   5.2022   5.5034   5.5270   5.5547   6.2270   6.4285
     6.4406   6.5027   6.7371   6.8602   7.0028   7.0869   7.2129   7.2688
     7.3322   7.4475   7.6039   7.7023   7.8097   7.9290   8.1060   8.2091
     8.3794   8.4340   8.4876   8.5793   8.8560   8.8907   9.1412   9.1827
     9.3160   9.4468   9.5016   9.5622   9.6338   9.6701   9.8571  10.0275
    10.0497  10.0773  10.1273  10.1414  10.2069  10.3645  10.3977  10.5228
    10.6839  10.7949  10.9667  11.0818  11.1571  11.2333  11.2805  11.3532
    11.5081  11.9069  11.9458  13.7126  13.7541  13.8780  13.9225  14.0039
    14.0341  14.0807  14.1629  14.1705  14.3260  14.3390  14.9218  14.9757
    15.5410  15.5887  15.6184  15.7991  15.9238  16.0568  16.9630  17.0872
    17.1047  17.1903  17.4075  17.4139  17.4901  17.5004  17.7407  17.7923

          k = 0.0667 0.0000 0.0000 ( 10435 PWs)   bands (ev):

   -79.4769 -79.2874 -79.2379 -74.1955 -74.0721 -74.0568 -45.4695 -45.4176
   -45.4176 -45.2765 -45.2764 -45.2360 -45.2360 -45.1677 -45.1677 -40.3309
   -40.2813 -40.2813 -40.2088 -40.2069 -40.1622 -40.1622 -40.1457 -40.1457
   -10.5774 -10.5766 -10.5553 -10.5548 -10.5389 -10.5305 -10.5104 -10.5102
   -10.4957 -10.4956 -10.4887 -10.4886 -10.4663 -10.4663 -10.4419 -10.4312
   -10.4187 -10.4187 -10.4090 -10.4089 -10.3990 -10.3987 -10.3938 -10.3884
   -10.3880 -10.3850 -10.3606 -10.3603 -10.3508 -10.3502  -7.2618  -6.8701
    -6.7573  -5.9259  -5.8558  -5.5672  -5.5621  -5.4554  -5.4535  -5.3570
    -5.3532  -5.2944  -5.2308  -5.2268  -4.9989  -4.9962  -4.8377  -4.8353
     1.6432   1.7688   1.8243   2.5072   2.6207   3.3840   4.1723   4.1828
     4.3101   4.3226   4.6660   4.6708   4.8550   4.8692   4.9014   5.0294
     5.0662   5.1429   5.1674   5.4878   5.5241   5.5288   6.2003   6.3664
     6.3683   6.4724   6.7428   6.7890   6.9311   7.0548   7.0998   7.3127
     7.3690   7.4160   7.5611   7.6210   7.8168   7.8566   8.1099   8.1392
     8.3654   8.4048   8.4487   8.5073   8.9102   8.9298   9.1559   9.1751
     9.3405   9.4321   9.4660   9.5184   9.6614   9.6813  10.0088  10.0555
    10.1193  10.1429  10.1588  10.1897  10.2205  10.4248  10.4378  10.6131
    10.6756  10.8445  10.9952  11.0312  11.1723  11.2100  11.2867  11.3174
    11.3978  11.9351  11.9439  13.7319  13.7450  13.8734  13.9215  13.9979
    14.0109  14.0620  14.1755  14.1764  14.3096  14.3133  14.9677  14.9830
    15.5991  15.6146  15.6333  15.8280  15.9132  16.0466  17.1717  17.1857
    17.2344  17.2990  17.3707  17.3781  17.6695  17.6761  17.7191  17.7553

          k = 0.0000 0.0000 0.0000 ( 10443 PWs)   bands (ev):

   -79.4769 -79.2874 -79.2379 -74.1955 -74.0721 -74.0568 -45.4695 -45.4176
   -45.4176 -45.2765 -45.2764 -45.2360 -45.2360 -45.1677 -45.1677 -40.3309
   -40.2813 -40.2813 -40.2088 -40.2069 -40.1622 -40.1622 -40.1457 -40.1457
   -10.5778 -10.5778 -10.5547 -10.5547 -10.5390 -10.5306 -10.5115 -10.5115
   -10.4957 -10.4957 -10.4891 -10.4891 -10.4661 -10.4661 -10.4422 -10.4312
   -10.4188 -10.4188 -10.4084 -10.4084 -10.3989 -10.3989 -10.3940 -10.3878
   -10.3878 -10.3853 -10.3604 -10.3603 -10.3500 -10.3500  -7.2733  -6.8796
    -6.7670  -5.9277  -5.8567  -5.5589  -5.5588  -5.4499  -5.4499  -5.3495
    -5.3494  -5.2918  -5.2260  -5.2259  -4.9922  -4.9921  -4.8358  -4.8357
     1.6471   1.7724   1.8277   2.5201   2.6347   3.4248   4.1711   4.1712
     4.3101   4.3101   4.6589   4.6590   4.8734   4.8735   4.8958   5.0297
     5.0832   5.1389   5.1389   5.4765   5.5246   5.5246   6.1941   6.3377
     6.3378   6.4680   6.7607   6.7608   6.9051   7.0446   7.0446   7.3441
     7.4029   7.4030   7.5145   7.6016   7.8230   7.8230   8.1119   8.1120
     8.3461   8.4386   8.4387   8.4436   8.9375   8.9376   9.1746   9.1747
     9.3812   9.4287   9.4287   9.4597   9.6885   9.6885  10.0637  10.0637
    10.1646  10.1646  10.1685  10.2153  10.2153  10.4503  10.4503  10.6655
    10.6655  10.8146  10.9505  11.1592  11.1831  11.1831  11.2581  11.2866
    11.3443  11.9440  11.9441  13.7424  13.7424  13.8584  13.9350  13.9971
    13.9971  14.0532  14.1807  14.1807  14.3035  14.3035  14.9847  14.9847
    15.6062  15.6382  15.6383  15.8346  15.9094  16.0424  17.2633  17.2634
    17.2912  17.2912  17.3722  17.3722  17.6554  17.7310  17.8062  17.8062

     Writing output data file /home/aldair1809/Documentos/QE/4BFO/temp_tipoA/bands/bifeo3.save/

     init_run     :    127.97s CPU    128.84s WALL (       1 calls)
     electrons    :  17451.67s CPU  17720.20s WALL (       1 calls)

     Called by init_run:
     wfcinit      :    123.98s CPU    124.31s WALL (       1 calls)
     wfcinit:atom :      0.41s CPU      0.43s WALL (      62 calls)
     wfcinit:wfcr :    319.89s CPU    324.05s WALL (      62 calls)
     potinit      :      0.39s CPU      0.44s WALL (       1 calls)
     hinit0       :      1.50s CPU      1.52s WALL (       1 calls)

     Called by electrons:
     c_bands      :  17451.65s CPU  17720.17s WALL (       1 calls)
     v_of_rho     :      0.30s CPU      0.33s WALL (       1 calls)
     v_h          :      0.01s CPU      0.01s WALL (       1 calls)
     v_xc         :      0.29s CPU      0.32s WALL (       1 calls)
     newd         :      2.00s CPU      2.48s WALL (       1 calls)

     Called by c_bands:
     init_us_2    :      1.27s CPU      1.30s WALL (     124 calls)
     ccgdiagg     :  15840.70s CPU  16085.29s WALL (     356 calls)
     wfcrot       :   1606.72s CPU   1629.17s WALL (     356 calls)

     Called by sum_band:

     Called by *cgdiagg:
     h_psi        :   7876.10s CPU   8048.43s WALL (  470142 calls)
     s_psi        :   4734.44s CPU   4776.33s WALL (  939990 calls)

     Called by h_psi:
     h_psi:calbec :   2688.80s CPU   2732.91s WALL (  470142 calls)
     vloc_psi     :   1968.00s CPU   2067.05s WALL (  470142 calls)
     add_vuspsi   :   2487.38s CPU   2507.34s WALL (  470142 calls)
     vhpsi        :    716.20s CPU    726.43s WALL (  470142 calls)
     hs_1psi      :   9140.80s CPU   9315.64s WALL (  469786 calls)
     s_1psi       :   4527.89s CPU   4571.57s WALL (  469786 calls)

     General routines
     calbec       :   5624.09s CPU   5703.15s WALL ( 1410132 calls)
     fft          :      0.42s CPU      0.44s WALL (      23 calls)
     ffts         :      0.01s CPU      0.01s WALL (       2 calls)
     fftw         :   1768.21s CPU   1862.25s WALL ( 1068356 calls)
     interpolate  :      0.03s CPU      0.03s WALL (       2 calls)
     davcio       :      0.06s CPU     27.12s WALL (     248 calls)

     Parallel routines
     fft_scatt_xy :    186.64s CPU    200.05s WALL ( 1068381 calls)
     fft_scatt_yz :    440.49s CPU    481.34s WALL ( 1068381 calls)

     Hubbard U routines
     vhpsi        :    716.20s CPU    726.43s WALL (  470142 calls)

     PWSCF        :      4h53m CPU      4h58m WALL


   This run was terminated on:  23:30:56  15Dec2024            

=------------------------------------------------------------------------------=
   JOB DONE.
=------------------------------------------------------------------------------=
