
     Program BANDS v.6.7MaX starts on 15Dec2024 at 23:31: 4 

     This program is part of the open-source Quantum ESPRESSO suite
     for quantum simulation of materials; please cite
         "P. Giannozzi et al., J. Phys.:Condens. Matter 21 395502 (2009);
         "P. Giannozzi et al., J. Phys.:Condens. Matter 29 465901 (2017);
          URL http://www.quantum-espresso.org", 
     in publications or presentations arising from this work. More details at
     http://www.quantum-espresso.org/quote

     Parallel version (MPI), running on     6 processors

     MPI processes distributed on     1 nodes
     R & G space division:  proc/nbgrp/npool/nimage =       6

     Reading xml data from directory:

     /home/aldair1809/Documentos/QE/4BFO/temp_tipoA/bands/bifeo3.save/

     IMPORTANT: XC functional enforced from input :
     Exchange-correlation= PBE
                           (   1   4   3   4   0   0   0)
     Any further DFT definition will be discarded
     Please, verify this is what you really want


     Parallelization info
     --------------------
     sticks:   dense  smooth     PW     G-vecs:    dense   smooth      PW
     Min         401     200     57                39339    13882    2095
     Max         402     201     59                39350    13889    2099
     Sum        2407    1201    349               236061    83311   12583


     Check: negative core charge=   -0.000014

     negative rho (up, down):  1.183E-01 1.183E-01
     Reading collected, re-writing distributed wavefunctions
     high-symmetry point:  0.0000 0.0000 0.0000   x coordinate   0.0000
     high-symmetry point:  0.5000 0.2887 0.0000   x coordinate   0.5774
     high-symmetry point:  0.6667 0.0000 0.0000   x coordinate   0.9107
     high-symmetry point:  0.0000 0.0000 0.0000   x coordinate   1.5774

     Plottable bands (eV) written to file bifeo3.bandas.gnu
     Bands written to file bifeo3.bandas

 **************************************************************************

                    xk=(   0.00000,   0.00000,   0.00000  )

     point group C_1 (1)    
     there are  1 classes
     the character table:

       E    
A      1.00

     the symmetry operations in each class and the name of the first element:

     E        1
                                                                 

     Band symmetry, C_1 (1)     point group:

     e(  1 -  1) =    -79.47833  eV     1   --> A              
     e(  2 -  2) =    -79.28773  eV     1   --> A              
     e(  3 -  3) =    -79.23884  eV     1   --> A              
     e(  4 -  4) =    -74.19402  eV     1   --> A              
     e(  5 -  5) =    -74.07183  eV     1   --> A              
     e(  6 -  6) =    -74.05578  eV     1   --> A              
     e(  7 -  7) =    -45.47070  eV     1   --> A              
     e(  8 -  9) =    -45.41904  eV     2   -->   2 A              
     e( 10 - 10) =    -45.27715  eV     1   --> A              
     e( 11 - 11) =    -45.27672  eV     1   --> A              
     e( 12 - 13) =    -45.23628  eV     2   -->   2 A              
     e( 14 - 15) =    -45.16864  eV     2   -->   2 A              
     e( 16 - 16) =    -40.32957  eV     1   --> A              
     e( 17 - 18) =    -40.27987  eV     2   -->   2 A              
     e( 19 - 19) =    -40.20859  eV     1   --> A              
     e( 20 - 20) =    -40.20595  eV     1   --> A              
     e( 21 - 22) =    -40.16195  eV     2   -->   2 A              
     e( 23 - 24) =    -40.14470  eV     2   -->   2 A              
     e( 25 - 26) =    -10.57813  eV     2   -->   2 A              
     e( 27 - 28) =    -10.55433  eV     2   -->   2 A              
     e( 29 - 29) =    -10.53985  eV     1   --> A              
     e( 30 - 30) =    -10.52967  eV     1   --> A              
     e( 31 - 32) =    -10.51182  eV     2   -->   2 A              
     e( 33 - 34) =    -10.49573  eV     2   -->   2 A              
     e( 35 - 36) =    -10.48858  eV     2   -->   2 A              
     e( 37 - 38) =    -10.46631  eV     2   -->   2 A              
     e( 39 - 39) =    -10.44170  eV     1   --> A              
     e( 40 - 40) =    -10.43175  eV     1   --> A              
     e( 41 - 42) =    -10.41877  eV     2   -->   2 A              
     e( 43 - 44) =    -10.40847  eV     2   -->   2 A              
     e( 45 - 46) =    -10.39880  eV     2   -->   2 A              
     e( 47 - 47) =    -10.39353  eV     1   --> A              
     e( 48 - 49) =    -10.38794  eV     2   -->   2 A              
     e( 50 - 50) =    -10.38567  eV     1   --> A              
     e( 51 - 52) =    -10.36008  eV     2   -->   2 A              
     e( 53 - 54) =    -10.35022  eV     2   -->   2 A              
     e( 55 - 55) =     -7.27329  eV     1   --> A              
     e( 56 - 56) =     -6.87955  eV     1   --> A              
     e( 57 - 57) =     -6.76703  eV     1   --> A              
     e( 58 - 58) =     -5.92791  eV     1   --> A              
     e( 59 - 59) =     -5.85656  eV     1   --> A              
     e( 60 - 61) =     -5.55952  eV     2   -->   2 A              
     e( 62 - 63) =     -5.44980  eV     2   -->   2 A              
     e( 64 - 65) =     -5.34962  eV     2   -->   2 A              
     e( 66 - 66) =     -5.29162  eV     1   --> A              
     e( 67 - 67) =     -5.22521  eV     1   --> A              
     e( 68 - 68) =     -5.22506  eV     1   --> A              
     e( 69 - 70) =     -4.99187  eV     2   -->   2 A              
     e( 71 - 72) =     -4.83610  eV     2   -->   2 A              
     e( 73 - 73) =      1.64705  eV     1   --> A              
     e( 74 - 74) =      1.77255  eV     1   --> A              
     e( 75 - 75) =      1.82760  eV     1   --> A              
     e( 76 - 76) =      2.52005  eV     1   --> A              
     e( 77 - 77) =      2.63466  eV     1   --> A              
     e( 78 - 78) =      3.42474  eV     1   --> A              
     e( 79 - 80) =      4.17066  eV     2   -->   2 A              
     e( 81 - 82) =      4.30964  eV     2   -->   2 A              
     e( 83 - 84) =      4.65858  eV     2   -->   2 A              
     e( 85 - 86) =      4.87316  eV     2   -->   2 A              
     e( 87 - 87) =      4.89532  eV     1   --> A              
     e( 88 - 88) =      5.02928  eV     1   --> A              
     e( 89 - 89) =      5.08318  eV     1   --> A              
     e( 90 - 91) =      5.13816  eV     2   -->   2 A              
     e( 92 - 92) =      5.47658  eV     1   --> A              
     e( 93 - 94) =      5.52395  eV     2   -->   2 A              
     e( 95 - 95) =      6.19400  eV     1   --> A              
     e( 96 - 97) =      6.33760  eV     2   -->   2 A              
     e( 98 - 98) =      6.46792  eV     1   --> A              
     e( 99 -100) =      6.76065  eV     2   -->   2 A              
     e(101 -101) =      6.90473  eV     1   --> A              
     e(102 -103) =      7.04456  eV     2   -->   2 A              
     e(104 -104) =      7.34411  eV     1   --> A              
     e(105 -106) =      7.40260  eV     2   -->   2 A              
     e(107 -107) =      7.51393  eV     1   --> A              
     e(108 -108) =      7.60153  eV     1   --> A              
     e(109 -110) =      7.82281  eV     2   -->   2 A              
     e(111 -112) =      8.11201  eV     2   -->   2 A              
     e(113 -113) =      8.34611  eV     1   --> A              
     e(114 -115) =      8.43867  eV     2   -->   2 A              
     e(116 -116) =      8.44390  eV     1   --> A              
     e(117 -118) =      8.93752  eV     2   -->   2 A              
     e(119 -120) =      9.17442  eV     2   -->   2 A              
     e(121 -121) =      9.38128  eV     1   --> A              
     e(122 -123) =      9.42893  eV     2   -->   2 A              
     e(124 -124) =      9.45982  eV     1   --> A              
     e(125 -126) =      9.68875  eV     2   -->   2 A              
     e(127 -128) =     10.06368  eV     2   -->   2 A              
     e(129 -130) =     10.16440  eV     2   -->   2 A              
     e(131 -131) =     10.16837  eV     1   --> A              
     e(132 -133) =     10.21538  eV     2   -->   2 A              
     e(134 -135) =     10.44948  eV     2   -->   2 A              
     e(136 -137) =     10.66551  eV     2   -->   2 A              
     e(138 -138) =     10.81403  eV     1   --> A              
     e(139 -139) =     10.95068  eV     1   --> A              
     e(140 -140) =     11.15941  eV     1   --> A              
     e(141 -142) =     11.18253  eV     2   -->   2 A              
     e(143 -143) =     11.25826  eV     1   --> A              
     e(144 -144) =     11.28633  eV     1   --> A              
     e(145 -145) =     11.34466  eV     1   --> A              
     e(146 -147) =     11.94351  eV     2   -->   2 A              
     e(148 -149) =     13.74334  eV     2   -->   2 A              
     e(150 -150) =     13.85979  eV     1   --> A              
     e(151 -151) =     13.93564  eV     1   --> A              
     e(152 -153) =     13.99773  eV     2   -->   2 A              
     e(154 -154) =     14.05332  eV     1   --> A              
     e(155 -156) =     14.18159  eV     2   -->   2 A              
     e(157 -158) =     14.30436  eV     2   -->   2 A              
     e(159 -160) =     14.98554  eV     2   -->   2 A              
     e(161 -161) =     15.60602  eV     1   --> A              
     e(162 -163) =     15.63917  eV     2   -->   2 A              
     e(164 -164) =     15.83503  eV     1   --> A              
     e(165 -165) =     15.90947  eV     1   --> A              
     e(166 -166) =     16.04260  eV     1   --> A              
     e(167 -168) =     17.26331  eV     2   -->   2 A              
     e(169 -170) =     17.29054  eV     2   -->   2 A              
     e(171 -172) =     17.37279  eV     2   -->   2 A              
     e(173 -173) =     17.65543  eV     1   --> A              
     e(174 -174) =     17.73097  eV     1   --> A              
     e(175 -176) =     17.80610  eV     2   -->   2 A              

 **************************************************************************

 **************************************************************************

                    xk=(   0.05000,   0.02887,   0.00000  )

     Band symmetry, C_1 (1)     point group:

     e(  1 -  1) =    -79.47833  eV     1   --> A              
     e(  2 -  2) =    -79.28773  eV     1   --> A              
     e(  3 -  3) =    -79.23884  eV     1   --> A              
     e(  4 -  4) =    -74.19402  eV     1   --> A              
     e(  5 -  5) =    -74.07183  eV     1   --> A              
     e(  6 -  6) =    -74.05578  eV     1   --> A              
     e(  7 -  7) =    -45.47070  eV     1   --> A              
     e(  8 -  9) =    -45.41904  eV     2   -->   2 A              
     e( 10 - 10) =    -45.27715  eV     1   --> A              
     e( 11 - 11) =    -45.27672  eV     1   --> A              
     e( 12 - 13) =    -45.23628  eV     2   -->   2 A              
     e( 14 - 15) =    -45.16864  eV     2   -->   2 A              
     e( 16 - 16) =    -40.32957  eV     1   --> A              
     e( 17 - 18) =    -40.27987  eV     2   -->   2 A              
     e( 19 - 19) =    -40.20859  eV     1   --> A              
     e( 20 - 20) =    -40.20594  eV     1   --> A              
     e( 21 - 22) =    -40.16195  eV     2   -->   2 A              
     e( 23 - 24) =    -40.14470  eV     2   -->   2 A              
     e( 25 - 25) =    -10.57779  eV     1   --> A              
     e( 26 - 26) =    -10.57718  eV     1   --> A              
     e( 27 - 27) =    -10.55480  eV     1   --> A              
     e( 28 - 28) =    -10.55439  eV     1   --> A              
     e( 29 - 29) =    -10.53979  eV     1   --> A              
     e( 30 - 30) =    -10.52966  eV     1   --> A              
     e( 31 - 31) =    -10.51096  eV     1   --> A              
     e( 32 - 32) =    -10.51082  eV     1   --> A              
     e( 33 - 34) =    -10.49570  eV     2   -->   2 A              
     e( 35 - 35) =    -10.48835  eV     1   --> A              
     e( 36 - 36) =    -10.48822  eV     1   --> A              
     e( 37 - 38) =    -10.46647  eV     2   -->   2 A              
     e( 39 - 39) =    -10.44148  eV     1   --> A              
     e( 40 - 40) =    -10.43181  eV     1   --> A              
     e( 41 - 42) =    -10.41870  eV     2   -->   2 A              
     e( 43 - 43) =    -10.40893  eV     1   --> A              
     e( 44 - 44) =    -10.40881  eV     1   --> A              
     e( 45 - 45) =    -10.39885  eV     1   --> A              
     e( 46 - 46) =    -10.39861  eV     1   --> A              
     e( 47 - 47) =    -10.39340  eV     1   --> A              
     e( 48 - 48) =    -10.38833  eV     1   --> A              
     e( 49 - 49) =    -10.38807  eV     1   --> A              
     e( 50 - 50) =    -10.38545  eV     1   --> A              
     e( 51 - 51) =    -10.36022  eV     1   --> A              
     e( 52 - 52) =    -10.35995  eV     1   --> A              
     e( 53 - 53) =    -10.35084  eV     1   --> A              
     e( 54 - 54) =    -10.35044  eV     1   --> A              
     e( 55 - 55) =     -7.26470  eV     1   --> A              
     e( 56 - 56) =     -6.87243  eV     1   --> A              
     e( 57 - 57) =     -6.75973  eV     1   --> A              
     e( 58 - 58) =     -5.92652  eV     1   --> A              
     e( 59 - 59) =     -5.85586  eV     1   --> A              
     e( 60 - 60) =     -5.56575  eV     1   --> A              
     e( 61 - 61) =     -5.56197  eV     1   --> A              
     e( 62 - 62) =     -5.45406  eV     1   --> A              
     e( 63 - 63) =     -5.45220  eV     1   --> A              
     e( 64 - 64) =     -5.35538  eV     1   --> A              
     e( 65 - 65) =     -5.35239  eV     1   --> A              
     e( 66 - 66) =     -5.29344  eV     1   --> A              
     e( 67 - 67) =     -5.22876  eV     1   --> A              
     e( 68 - 68) =     -5.22580  eV     1   --> A              
     e( 69 - 69) =     -4.99704  eV     1   --> A              
     e( 70 - 70) =     -4.99487  eV     1   --> A              
     e( 71 - 71) =     -4.83753  eV     1   --> A              
     e( 72 - 72) =     -4.83567  eV     1   --> A              
     e( 73 - 73) =      1.64411  eV     1   --> A              
     e( 74 - 74) =      1.76980  eV     1   --> A              
     e( 75 - 75) =      1.82497  eV     1   --> A              
     e( 76 - 76) =      2.51037  eV     1   --> A              
     e( 77 - 77) =      2.62413  eV     1   --> A              
     e( 78 - 78) =      3.39395  eV     1   --> A              
     e( 79 - 79) =      4.17177  eV     1   --> A              
     e( 80 - 80) =      4.17935  eV     1   --> A              
     e( 81 - 81) =      4.30981  eV     1   --> A              
     e( 82 - 82) =      4.31875  eV     1   --> A              
     e( 83 - 83) =      4.66454  eV     1   --> A              
     e( 84 - 84) =      4.66708  eV     1   --> A              
     e( 85 - 85) =      4.85842  eV     1   --> A              
     e( 86 - 86) =      4.86988  eV     1   --> A              
     e( 87 - 87) =      4.90029  eV     1   --> A              
     e( 88 - 88) =      5.02936  eV     1   --> A              
     e( 89 - 89) =      5.06830  eV     1   --> A              
     e( 90 - 90) =      5.14109  eV     1   --> A              
     e( 91 - 91) =      5.16147  eV     1   --> A              
     e( 92 - 92) =      5.48515  eV     1   --> A              
     e( 93 - 93) =      5.52356  eV     1   --> A              
     e( 94 - 94) =      5.52694  eV     1   --> A              
     e( 95 - 95) =      6.19842  eV     1   --> A              
     e( 96 - 96) =      6.35952  eV     1   --> A              
     e( 97 - 97) =      6.36086  eV     1   --> A              
     e( 98 - 98) =      6.47102  eV     1   --> A              
     e( 99 - 99) =      6.74595  eV     1   --> A              
     e(100 -100) =      6.78215  eV     1   --> A              
     e(101 -101) =      6.92436  eV     1   --> A              
     e(102 -102) =      7.05223  eV     1   --> A              
     e(103 -103) =      7.08706  eV     1   --> A              
     e(104 -104) =      7.31936  eV     1   --> A              
     e(105 -105) =      7.37469  eV     1   --> A              
     e(106 -106) =      7.41312  eV     1   --> A              
     e(107 -107) =      7.55221  eV     1   --> A              
     e(108 -108) =      7.61520  eV     1   --> A              
     e(109 -109) =      7.81793  eV     1   --> A              
     e(110 -110) =      7.84879  eV     1   --> A              
     e(111 -111) =      8.11052  eV     1   --> A              
     e(112 -112) =      8.13281  eV     1   --> A              
     e(113 -113) =      8.36083  eV     1   --> A              
     e(114 -114) =      8.40767  eV     1   --> A              
     e(115 -115) =      8.44595  eV     1   --> A              
     e(116 -116) =      8.49751  eV     1   --> A              
     e(117 -117) =      8.91612  eV     1   --> A              
     e(118 -118) =      8.93269  eV     1   --> A              
     e(119 -119) =      9.15959  eV     1   --> A              
     e(120 -120) =      9.17451  eV     1   --> A              
     e(121 -121) =      9.34581  eV     1   --> A              
     e(122 -122) =      9.43426  eV     1   --> A              
     e(123 -123) =      9.45633  eV     1   --> A              
     e(124 -124) =      9.50780  eV     1   --> A              
     e(125 -125) =      9.66829  eV     1   --> A              
     e(126 -126) =      9.68309  eV     1   --> A              
     e(127 -127) =     10.02284  eV     1   --> A              
     e(128 -128) =     10.05757  eV     1   --> A              
     e(129 -129) =     10.12828  eV     1   --> A              
     e(130 -130) =     10.14873  eV     1   --> A              
     e(131 -131) =     10.15994  eV     1   --> A              
     e(132 -132) =     10.19595  eV     1   --> A              
     e(133 -133) =     10.22052  eV     1   --> A              
     e(134 -134) =     10.42807  eV     1   --> A              
     e(135 -135) =     10.44182  eV     1   --> A              
     e(136 -136) =     10.62673  eV     1   --> A              
     e(137 -137) =     10.67076  eV     1   --> A              
     e(138 -138) =     10.84004  eV     1   --> A              
     e(139 -139) =     10.98507  eV     1   --> A              
     e(140 -140) =     11.05028  eV     1   --> A              
     e(141 -141) =     11.17391  eV     1   --> A              
     e(142 -142) =     11.20707  eV     1   --> A              
     e(143 -143) =     11.28631  eV     1   --> A              
     e(144 -144) =     11.31255  eV     1   --> A              
     e(145 -145) =     11.38332  eV     1   --> A              
     e(146 -146) =     11.93704  eV     1   --> A              
     e(147 -147) =     11.94322  eV     1   --> A              
     e(148 -148) =     13.73530  eV     1   --> A              
     e(149 -149) =     13.74521  eV     1   --> A              
     e(150 -150) =     13.87161  eV     1   --> A              
     e(151 -151) =     13.92483  eV     1   --> A              
     e(152 -152) =     13.99835  eV     1   --> A              
     e(153 -153) =     14.00841  eV     1   --> A              
     e(154 -154) =     14.06011  eV     1   --> A              
     e(155 -155) =     14.17778  eV     1   --> A              
     e(156 -156) =     14.17807  eV     1   --> A              
     e(157 -157) =     14.30878  eV     1   --> A              
     e(158 -158) =     14.31192  eV     1   --> A              
     e(159 -159) =     14.97264  eV     1   --> A              
     e(160 -160) =     14.98437  eV     1   --> A              
     e(161 -161) =     15.60132  eV     1   --> A              
     e(162 -162) =     15.62061  eV     1   --> A              
     e(163 -163) =     15.63552  eV     1   --> A              
     e(164 -164) =     15.83023  eV     1   --> A              
     e(165 -165) =     15.91232  eV     1   --> A              
     e(166 -166) =     16.04581  eV     1   --> A              
     e(167 -167) =     17.18618  eV     1   --> A              
     e(168 -168) =     17.20124  eV     1   --> A              
     e(169 -169) =     17.25532  eV     1   --> A              
     e(170 -170) =     17.30770  eV     1   --> A              
     e(171 -171) =     17.36095  eV     1   --> A              
     e(172 -172) =     17.37595  eV     1   --> A              
     e(173 -173) =     17.68717  eV     1   --> A              
     e(174 -174) =     17.70305  eV     1   --> A              
     e(175 -175) =     17.70995  eV     1   --> A              
     e(176 -176) =     17.75025  eV     1   --> A              

 **************************************************************************

 **************************************************************************

                    xk=(   0.10000,   0.05774,   0.00000  )

     Band symmetry, C_1 (1)     point group:

     e(  1 -  1) =    -79.47833  eV     1   --> A              
     e(  2 -  2) =    -79.28773  eV     1   --> A              
     e(  3 -  3) =    -79.23884  eV     1   --> A              
     e(  4 -  4) =    -74.19402  eV     1   --> A              
     e(  5 -  5) =    -74.07183  eV     1   --> A              
     e(  6 -  6) =    -74.05578  eV     1   --> A              
     e(  7 -  7) =    -45.47070  eV     1   --> A              
     e(  8 -  9) =    -45.41904  eV     2   -->   2 A              
     e( 10 - 10) =    -45.27714  eV     1   --> A              
     e( 11 - 11) =    -45.27672  eV     1   --> A              
     e( 12 - 13) =    -45.23628  eV     2   -->   2 A              
     e( 14 - 15) =    -45.16864  eV     2   -->   2 A              
     e( 16 - 16) =    -40.32957  eV     1   --> A              
     e( 17 - 18) =    -40.27987  eV     2   -->   2 A              
     e( 19 - 19) =    -40.20859  eV     1   --> A              
     e( 20 - 20) =    -40.20594  eV     1   --> A              
     e( 21 - 22) =    -40.16195  eV     2   -->   2 A              
     e( 23 - 24) =    -40.14470  eV     2   -->   2 A              
     e( 25 - 25) =    -10.57674  eV     1   --> A              
     e( 26 - 26) =    -10.57442  eV     1   --> A              
     e( 27 - 27) =    -10.55619  eV     1   --> A              
     e( 28 - 28) =    -10.55437  eV     1   --> A              
     e( 29 - 29) =    -10.53957  eV     1   --> A              
     e( 30 - 30) =    -10.52956  eV     1   --> A              
     e( 31 - 31) =    -10.50881  eV     1   --> A              
     e( 32 - 32) =    -10.50824  eV     1   --> A              
     e( 33 - 33) =    -10.49558  eV     1   --> A              
     e( 34 - 34) =    -10.49538  eV     1   --> A              
     e( 35 - 35) =    -10.48759  eV     1   --> A              
     e( 36 - 36) =    -10.48715  eV     1   --> A              
     e( 37 - 37) =    -10.46703  eV     1   --> A              
     e( 38 - 38) =    -10.46689  eV     1   --> A              
     e( 39 - 39) =    -10.44093  eV     1   --> A              
     e( 40 - 40) =    -10.43195  eV     1   --> A              
     e( 41 - 41) =    -10.41859  eV     1   --> A              
     e( 42 - 42) =    -10.41845  eV     1   --> A              
     e( 43 - 43) =    -10.41016  eV     1   --> A              
     e( 44 - 44) =    -10.40985  eV     1   --> A              
     e( 45 - 45) =    -10.39920  eV     1   --> A              
     e( 46 - 46) =    -10.39824  eV     1   --> A              
     e( 47 - 47) =    -10.39314  eV     1   --> A              
     e( 48 - 48) =    -10.38945  eV     1   --> A              
     e( 49 - 49) =    -10.38851  eV     1   --> A              
     e( 50 - 50) =    -10.38518  eV     1   --> A              
     e( 51 - 51) =    -10.36079  eV     1   --> A              
     e( 52 - 52) =    -10.35977  eV     1   --> A              
     e( 53 - 53) =    -10.35247  eV     1   --> A              
     e( 54 - 54) =    -10.35102  eV     1   --> A              
     e( 55 - 55) =     -7.23907  eV     1   --> A              
     e( 56 - 56) =     -6.85123  eV     1   --> A              
     e( 57 - 57) =     -6.73801  eV     1   --> A              
     e( 58 - 58) =     -5.92337  eV     1   --> A              
     e( 59 - 59) =     -5.85466  eV     1   --> A              
     e( 60 - 60) =     -5.58312  eV     1   --> A              
     e( 61 - 61) =     -5.56928  eV     1   --> A              
     e( 62 - 62) =     -5.46875  eV     1   --> A              
     e( 63 - 63) =     -5.45904  eV     1   --> A              
     e( 64 - 64) =     -5.36982  eV     1   --> A              
     e( 65 - 65) =     -5.36019  eV     1   --> A              
     e( 66 - 66) =     -5.30239  eV     1   --> A              
     e( 67 - 67) =     -5.23870  eV     1   --> A              
     e( 68 - 68) =     -5.22644  eV     1   --> A              
     e( 69 - 69) =     -5.01146  eV     1   --> A              
     e( 70 - 70) =     -5.00338  eV     1   --> A              
     e( 71 - 71) =     -4.84208  eV     1   --> A              
     e( 72 - 72) =     -4.83479  eV     1   --> A              
     e( 73 - 73) =      1.63601  eV     1   --> A              
     e( 74 - 74) =      1.76200  eV     1   --> A              
     e( 75 - 75) =      1.81838  eV     1   --> A              
     e( 76 - 76) =      2.48230  eV     1   --> A              
     e( 77 - 77) =      2.59412  eV     1   --> A              
     e( 78 - 78) =      3.30819  eV     1   --> A              
     e( 79 - 79) =      4.17490  eV     1   --> A              
     e( 80 - 80) =      4.19724  eV     1   --> A              
     e( 81 - 81) =      4.31970  eV     1   --> A              
     e( 82 - 82) =      4.34301  eV     1   --> A              
     e( 83 - 83) =      4.67934  eV     1   --> A              
     e( 84 - 84) =      4.68682  eV     1   --> A              
     e( 85 - 85) =      4.83263  eV     1   --> A              
     e( 86 - 86) =      4.86382  eV     1   --> A              
     e( 87 - 87) =      4.90065  eV     1   --> A              
     e( 88 - 88) =      5.02180  eV     1   --> A              
     e( 89 - 89) =      5.06667  eV     1   --> A              
     e( 90 - 90) =      5.14810  eV     1   --> A              
     e( 91 - 91) =      5.19373  eV     1   --> A              
     e( 92 - 92) =      5.50208  eV     1   --> A              
     e( 93 - 93) =      5.52208  eV     1   --> A              
     e( 94 - 94) =      5.54521  eV     1   --> A              
     e( 95 - 95) =      6.21670  eV     1   --> A              
     e( 96 - 96) =      6.41137  eV     1   --> A              
     e( 97 - 97) =      6.41976  eV     1   --> A              
     e( 98 - 98) =      6.48991  eV     1   --> A              
     e( 99 - 99) =      6.73239  eV     1   --> A              
     e(100 -100) =      6.83937  eV     1   --> A              
     e(101 -101) =      6.97989  eV     1   --> A              
     e(102 -102) =      7.07709  eV     1   --> A              
     e(103 -103) =      7.18162  eV     1   --> A              
     e(104 -104) =      7.27534  eV     1   --> A              
     e(105 -105) =      7.33862  eV     1   --> A              
     e(106 -106) =      7.43936  eV     1   --> A              
     e(107 -107) =      7.59371  eV     1   --> A              
     e(108 -108) =      7.67638  eV     1   --> A              
     e(109 -109) =      7.80767  eV     1   --> A              
     e(110 -110) =      7.90964  eV     1   --> A              
     e(111 -111) =      8.10695  eV     1   --> A              
     e(112 -112) =      8.18739  eV     1   --> A              
     e(113 -113) =      8.38221  eV     1   --> A              
     e(114 -114) =      8.41628  eV     1   --> A              
     e(115 -115) =      8.47264  eV     1   --> A              
     e(116 -116) =      8.56344  eV     1   --> A              
     e(117 -117) =      8.86195  eV     1   --> A              
     e(118 -118) =      8.91462  eV     1   --> A              
     e(119 -119) =      9.13849  eV     1   --> A              
     e(120 -120) =      9.18054  eV     1   --> A              
     e(121 -121) =      9.31366  eV     1   --> A              
     e(122 -122) =      9.45534  eV     1   --> A              
     e(123 -123) =      9.49186  eV     1   --> A              
     e(124 -124) =      9.56295  eV     1   --> A              
     e(125 -125) =      9.63388  eV     1   --> A              
     e(126 -126) =      9.66863  eV     1   --> A              
     e(127 -127) =      9.90451  eV     1   --> A              
     e(128 -128) =     10.03575  eV     1   --> A              
     e(129 -129) =     10.06897  eV     1   --> A              
     e(130 -130) =     10.10421  eV     1   --> A              
     e(131 -131) =     10.12669  eV     1   --> A              
     e(132 -132) =     10.16041  eV     1   --> A              
     e(133 -133) =     10.21199  eV     1   --> A              
     e(134 -134) =     10.35953  eV     1   --> A              
     e(135 -135) =     10.42695  eV     1   --> A              
     e(136 -136) =     10.57104  eV     1   --> A              
     e(137 -137) =     10.66444  eV     1   --> A              
     e(138 -138) =     10.82474  eV     1   --> A              
     e(139 -139) =     10.96698  eV     1   --> A              
     e(140 -140) =     11.06374  eV     1   --> A              
     e(141 -141) =     11.15910  eV     1   --> A              
     e(142 -142) =     11.22740  eV     1   --> A              
     e(143 -143) =     11.27958  eV     1   --> A              
     e(144 -144) =     11.34194  eV     1   --> A              
     e(145 -145) =     11.48246  eV     1   --> A              
     e(146 -146) =     11.91770  eV     1   --> A              
     e(147 -147) =     11.94267  eV     1   --> A              
     e(148 -148) =     13.71961  eV     1   --> A              
     e(149 -149) =     13.75096  eV     1   --> A              
     e(150 -150) =     13.88379  eV     1   --> A              
     e(151 -151) =     13.91707  eV     1   --> A              
     e(152 -152) =     14.00374  eV     1   --> A              
     e(153 -153) =     14.02604  eV     1   --> A              
     e(154 -154) =     14.07745  eV     1   --> A              
     e(155 -155) =     14.16921  eV     1   --> A              
     e(156 -156) =     14.17015  eV     1   --> A              
     e(157 -157) =     14.31975  eV     1   --> A              
     e(158 -158) =     14.33352  eV     1   --> A              
     e(159 -159) =     14.93594  eV     1   --> A              
     e(160 -160) =     14.98057  eV     1   --> A              
     e(161 -161) =     15.55983  eV     1   --> A              
     e(162 -162) =     15.59585  eV     1   --> A              
     e(163 -163) =     15.62507  eV     1   --> A              
     e(164 -164) =     15.81182  eV     1   --> A              
     e(165 -165) =     15.92022  eV     1   --> A              
     e(166 -166) =     16.05332  eV     1   --> A              
     e(167 -167) =     17.03013  eV     1   --> A              
     e(168 -168) =     17.10576  eV     1   --> A              
     e(169 -169) =     17.14378  eV     1   --> A              
     e(170 -170) =     17.22499  eV     1   --> A              
     e(171 -171) =     17.38173  eV     1   --> A              
     e(172 -172) =     17.42549  eV     1   --> A              
     e(173 -173) =     17.51108  eV     1   --> A              
     e(174 -174) =     17.57666  eV     1   --> A              
     e(175 -175) =     17.74904  eV     1   --> A              
     e(176 -176) =     17.78415  eV     1   --> A              

 **************************************************************************

 **************************************************************************

                    xk=(   0.15000,   0.08660,   0.00000  )

     Band symmetry, C_1 (1)     point group:

     e(  1 -  1) =    -79.47833  eV     1   --> A              
     e(  2 -  2) =    -79.28773  eV     1   --> A              
     e(  3 -  3) =    -79.23884  eV     1   --> A              
     e(  4 -  4) =    -74.19402  eV     1   --> A              
     e(  5 -  5) =    -74.07183  eV     1   --> A              
     e(  6 -  6) =    -74.05578  eV     1   --> A              
     e(  7 -  7) =    -45.47070  eV     1   --> A              
     e(  8 -  9) =    -45.41904  eV     2   -->   2 A              
     e( 10 - 10) =    -45.27715  eV     1   --> A              
     e( 11 - 11) =    -45.27672  eV     1   --> A              
     e( 12 - 13) =    -45.23628  eV     2   -->   2 A              
     e( 14 - 15) =    -45.16864  eV     2   -->   2 A              
     e( 16 - 16) =    -40.32957  eV     1   --> A              
     e( 17 - 18) =    -40.27987  eV     2   -->   2 A              
     e( 19 - 19) =    -40.20859  eV     1   --> A              
     e( 20 - 20) =    -40.20595  eV     1   --> A              
     e( 21 - 22) =    -40.16195  eV     2   -->   2 A              
     e( 23 - 24) =    -40.14471  eV     2   -->   2 A              
     e( 25 - 25) =    -10.57533  eV     1   --> A              
     e( 26 - 26) =    -10.57021  eV     1   --> A              
     e( 27 - 27) =    -10.55825  eV     1   --> A              
     e( 28 - 28) =    -10.55383  eV     1   --> A              
     e( 29 - 29) =    -10.53919  eV     1   --> A              
     e( 30 - 30) =    -10.52924  eV     1   --> A              
     e( 31 - 31) =    -10.50609  eV     1   --> A              
     e( 32 - 32) =    -10.50517  eV     1   --> A              
     e( 33 - 33) =    -10.49534  eV     1   --> A              
     e( 34 - 34) =    -10.49479  eV     1   --> A              
     e( 35 - 35) =    -10.48623  eV     1   --> A              
     e( 36 - 36) =    -10.48536  eV     1   --> A              
     e( 37 - 37) =    -10.46796  eV     1   --> A              
     e( 38 - 38) =    -10.46769  eV     1   --> A              
     e( 39 - 39) =    -10.44016  eV     1   --> A              
     e( 40 - 40) =    -10.43218  eV     1   --> A              
     e( 41 - 41) =    -10.41846  eV     1   --> A              
     e( 42 - 42) =    -10.41813  eV     1   --> A              
     e( 43 - 43) =    -10.41166  eV     1   --> A              
     e( 44 - 44) =    -10.41114  eV     1   --> A              
     e( 45 - 45) =    -10.40003  eV     1   --> A              
     e( 46 - 46) =    -10.39806  eV     1   --> A              
     e( 47 - 47) =    -10.39302  eV     1   --> A              
     e( 48 - 48) =    -10.39086  eV     1   --> A              
     e( 49 - 49) =    -10.38906  eV     1   --> A              
     e( 50 - 50) =    -10.38487  eV     1   --> A              
     e( 51 - 51) =    -10.36196  eV     1   --> A              
     e( 52 - 52) =    -10.35956  eV     1   --> A              
     e( 53 - 53) =    -10.35516  eV     1   --> A              
     e( 54 - 54) =    -10.35205  eV     1   --> A              
     e( 55 - 55) =     -7.19680  eV     1   --> A              
     e( 56 - 56) =     -6.81656  eV     1   --> A              
     e( 57 - 57) =     -6.70245  eV     1   --> A              
     e( 58 - 58) =     -5.92280  eV     1   --> A              
     e( 59 - 59) =     -5.85485  eV     1   --> A              
     e( 60 - 60) =     -5.60735  eV     1   --> A              
     e( 61 - 61) =     -5.58112  eV     1   --> A              
     e( 62 - 62) =     -5.49651  eV     1   --> A              
     e( 63 - 63) =     -5.46931  eV     1   --> A              
     e( 64 - 64) =     -5.38823  eV     1   --> A              
     e( 65 - 65) =     -5.37197  eV     1   --> A              
     e( 66 - 66) =     -5.32205  eV     1   --> A              
     e( 67 - 67) =     -5.25278  eV     1   --> A              
     e( 68 - 68) =     -5.22605  eV     1   --> A              
     e( 69 - 69) =     -5.03185  eV     1   --> A              
     e( 70 - 70) =     -5.01589  eV     1   --> A              
     e( 71 - 71) =     -4.85000  eV     1   --> A              
     e( 72 - 72) =     -4.83424  eV     1   --> A              
     e( 73 - 73) =      1.62458  eV     1   --> A              
     e( 74 - 74) =      1.74907  eV     1   --> A              
     e( 75 - 75) =      1.81286  eV     1   --> A              
     e( 76 - 76) =      2.43715  eV     1   --> A              
     e( 77 - 77) =      2.55030  eV     1   --> A              
     e( 78 - 78) =      3.18274  eV     1   --> A              
     e( 79 - 79) =      4.17899  eV     1   --> A              
     e( 80 - 80) =      4.20749  eV     1   --> A              
     e( 81 - 81) =      4.35693  eV     1   --> A              
     e( 82 - 82) =      4.37660  eV     1   --> A              
     e( 83 - 83) =      4.68340  eV     1   --> A              
     e( 84 - 84) =      4.71436  eV     1   --> A              
     e( 85 - 85) =      4.82008  eV     1   --> A              
     e( 86 - 86) =      4.85935  eV     1   --> A              
     e( 87 - 87) =      4.88654  eV     1   --> A              
     e( 88 - 88) =      5.02238  eV     1   --> A              
     e( 89 - 89) =      5.07842  eV     1   --> A              
     e( 90 - 90) =      5.15756  eV     1   --> A              
     e( 91 - 91) =      5.21608  eV     1   --> A              
     e( 92 - 92) =      5.50761  eV     1   --> A              
     e( 93 - 93) =      5.51906  eV     1   --> A              
     e( 94 - 94) =      5.59729  eV     1   --> A              
     e( 95 - 95) =      6.25308  eV     1   --> A              
     e( 96 - 96) =      6.45567  eV     1   --> A              
     e( 97 - 97) =      6.48893  eV     1   --> A              
     e( 98 - 98) =      6.55339  eV     1   --> A              
     e( 99 - 99) =      6.75864  eV     1   --> A              
     e(100 -100) =      6.91865  eV     1   --> A              
     e(101 -101) =      7.04890  eV     1   --> A              
     e(102 -102) =      7.12326  eV     1   --> A              
     e(103 -103) =      7.24411  eV     1   --> A              
     e(104 -104) =      7.27696  eV     1   --> A              
     e(105 -105) =      7.34680  eV     1   --> A              
     e(106 -106) =      7.47665  eV     1   --> A              
     e(107 -107) =      7.62292  eV     1   --> A              
     e(108 -108) =      7.75171  eV     1   --> A              
     e(109 -109) =      7.81920  eV     1   --> A              
     e(110 -110) =      7.97628  eV     1   --> A              
     e(111 -111) =      8.10810  eV     1   --> A              
     e(112 -112) =      8.26322  eV     1   --> A              
     e(113 -113) =      8.36846  eV     1   --> A              
     e(114 -114) =      8.47542  eV     1   --> A              
     e(115 -115) =      8.52526  eV     1   --> A              
     e(116 -116) =      8.61290  eV     1   --> A              
     e(117 -117) =      8.81809  eV     1   --> A              
     e(118 -118) =      8.89402  eV     1   --> A              
     e(119 -119) =      9.11377  eV     1   --> A              
     e(120 -120) =      9.20680  eV     1   --> A              
     e(121 -121) =      9.30794  eV     1   --> A              
     e(122 -122) =      9.46186  eV     1   --> A              
     e(123 -123) =      9.47445  eV     1   --> A              
     e(124 -124) =      9.55631  eV     1   --> A              
     e(125 -125) =      9.64990  eV     1   --> A              
     e(126 -126) =      9.67924  eV     1   --> A              
     e(127 -127) =      9.76335  eV     1   --> A              
     e(128 -128) =      9.98150  eV     1   --> A              
     e(129 -129) =     10.01670  eV     1   --> A              
     e(130 -130) =     10.03735  eV     1   --> A              
     e(131 -131) =     10.05861  eV     1   --> A              
     e(132 -132) =     10.13903  eV     1   --> A              
     e(133 -133) =     10.18720  eV     1   --> A              
     e(134 -134) =     10.25640  eV     1   --> A              
     e(135 -135) =     10.40544  eV     1   --> A              
     e(136 -136) =     10.52933  eV     1   --> A              
     e(137 -137) =     10.61011  eV     1   --> A              
     e(138 -138) =     10.75329  eV     1   --> A              
     e(139 -139) =     10.96634  eV     1   --> A              
     e(140 -140) =     11.11846  eV     1   --> A              
     e(141 -141) =     11.15835  eV     1   --> A              
     e(142 -142) =     11.22688  eV     1   --> A              
     e(143 -143) =     11.28102  eV     1   --> A              
     e(144 -144) =     11.38927  eV     1   --> A              
     e(145 -145) =     11.55563  eV     1   --> A              
     e(146 -146) =     11.88754  eV     1   --> A              
     e(147 -147) =     11.94255  eV     1   --> A              
     e(148 -148) =     13.70591  eV     1   --> A              
     e(149 -149) =     13.76085  eV     1   --> A              
     e(150 -150) =     13.86361  eV     1   --> A              
     e(151 -151) =     13.93957  eV     1   --> A              
     e(152 -152) =     14.01630  eV     1   --> A              
     e(153 -153) =     14.03742  eV     1   --> A              
     e(154 -154) =     14.10040  eV     1   --> A              
     e(155 -155) =     14.15897  eV     1   --> A              
     e(156 -156) =     14.16699  eV     1   --> A              
     e(157 -157) =     14.33423  eV     1   --> A              
     e(158 -158) =     14.36632  eV     1   --> A              
     e(159 -159) =     14.88029  eV     1   --> A              
     e(160 -160) =     14.97381  eV     1   --> A              
     e(161 -161) =     15.48059  eV     1   --> A              
     e(162 -162) =     15.56492  eV     1   --> A              
     e(163 -163) =     15.61092  eV     1   --> A              
     e(164 -164) =     15.78209  eV     1   --> A              
     e(165 -165) =     15.92850  eV     1   --> A              
     e(166 -166) =     16.06330  eV     1   --> A              
     e(167 -167) =     16.80971  eV     1   --> A              
     e(168 -168) =     16.99128  eV     1   --> A              
     e(169 -169) =     17.05730  eV     1   --> A              
     e(170 -170) =     17.11563  eV     1   --> A              
     e(171 -171) =     17.32225  eV     1   --> A              
     e(172 -172) =     17.37438  eV     1   --> A              
     e(173 -173) =     17.45852  eV     1   --> A              
     e(174 -174) =     17.47390  eV     1   --> A              
     e(175 -175) =     17.67461  eV     1   --> A              
     e(176 -176) =     17.80894  eV     1   --> A              

 **************************************************************************

 **************************************************************************

                    xk=(   0.20000,   0.11547,   0.00000  )

     Band symmetry, C_1 (1)     point group:

     e(  1 -  1) =    -79.47834  eV     1   --> A              
     e(  2 -  2) =    -79.28773  eV     1   --> A              
     e(  3 -  3) =    -79.23884  eV     1   --> A              
     e(  4 -  4) =    -74.19402  eV     1   --> A              
     e(  5 -  5) =    -74.07183  eV     1   --> A              
     e(  6 -  6) =    -74.05578  eV     1   --> A              
     e(  7 -  7) =    -45.47070  eV     1   --> A              
     e(  8 -  9) =    -45.41904  eV     2   -->   2 A              
     e( 10 - 10) =    -45.27715  eV     1   --> A              
     e( 11 - 11) =    -45.27672  eV     1   --> A              
     e( 12 - 13) =    -45.23628  eV     2   -->   2 A              
     e( 14 - 15) =    -45.16864  eV     2   -->   2 A              
     e( 16 - 16) =    -40.32957  eV     1   --> A              
     e( 17 - 18) =    -40.27987  eV     2   -->   2 A              
     e( 19 - 19) =    -40.20859  eV     1   --> A              
     e( 20 - 20) =    -40.20595  eV     1   --> A              
     e( 21 - 22) =    -40.16195  eV     2   -->   2 A              
     e( 23 - 24) =    -40.14471  eV     2   -->   2 A              
     e( 25 - 25) =    -10.57353  eV     1   --> A              
     e( 26 - 26) =    -10.56508  eV     1   --> A              
     e( 27 - 27) =    -10.56039  eV     1   --> A              
     e( 28 - 28) =    -10.55224  eV     1   --> A              
     e( 29 - 29) =    -10.53861  eV     1   --> A              
     e( 30 - 30) =    -10.52866  eV     1   --> A              
     e( 31 - 31) =    -10.50373  eV     1   --> A              
     e( 32 - 32) =    -10.50273  eV     1   --> A              
     e( 33 - 33) =    -10.49468  eV     1   --> A              
     e( 34 - 34) =    -10.49343  eV     1   --> A              
     e( 35 - 35) =    -10.48393  eV     1   --> A              
     e( 36 - 36) =    -10.48294  eV     1   --> A              
     e( 37 - 37) =    -10.46908  eV     1   --> A              
     e( 38 - 38) =    -10.46860  eV     1   --> A              
     e( 39 - 39) =    -10.43932  eV     1   --> A              
     e( 40 - 40) =    -10.43232  eV     1   --> A              
     e( 41 - 41) =    -10.41854  eV     1   --> A              
     e( 42 - 42) =    -10.41785  eV     1   --> A              
     e( 43 - 43) =    -10.41288  eV     1   --> A              
     e( 44 - 44) =    -10.41213  eV     1   --> A              
     e( 45 - 45) =    -10.40147  eV     1   --> A              
     e( 46 - 46) =    -10.39844  eV     1   --> A              
     e( 47 - 47) =    -10.39360  eV     1   --> A              
     e( 48 - 48) =    -10.39183  eV     1   --> A              
     e( 49 - 49) =    -10.38956  eV     1   --> A              
     e( 50 - 50) =    -10.38462  eV     1   --> A              
     e( 51 - 51) =    -10.36390  eV     1   --> A              
     e( 52 - 52) =    -10.35968  eV     1   --> A              
     e( 53 - 53) =    -10.35769  eV     1   --> A              
     e( 54 - 54) =    -10.35329  eV     1   --> A              
     e( 55 - 55) =     -7.13860  eV     1   --> A              
     e( 56 - 56) =     -6.76950  eV     1   --> A              
     e( 57 - 57) =     -6.65399  eV     1   --> A              
     e( 58 - 58) =     -5.93653  eV     1   --> A              
     e( 59 - 59) =     -5.85536  eV     1   --> A              
     e( 60 - 60) =     -5.63392  eV     1   --> A              
     e( 61 - 61) =     -5.59693  eV     1   --> A              
     e( 62 - 62) =     -5.53425  eV     1   --> A              
     e( 63 - 63) =     -5.48206  eV     1   --> A              
     e( 64 - 64) =     -5.40944  eV     1   --> A              
     e( 65 - 65) =     -5.38732  eV     1   --> A              
     e( 66 - 66) =     -5.34916  eV     1   --> A              
     e( 67 - 67) =     -5.26822  eV     1   --> A              
     e( 68 - 68) =     -5.22765  eV     1   --> A              
     e( 69 - 69) =     -5.05334  eV     1   --> A              
     e( 70 - 70) =     -5.03044  eV     1   --> A              
     e( 71 - 71) =     -4.86125  eV     1   --> A              
     e( 72 - 72) =     -4.83482  eV     1   --> A              
     e( 73 - 73) =      1.61184  eV     1   --> A              
     e( 74 - 74) =      1.73068  eV     1   --> A              
     e( 75 - 75) =      1.81623  eV     1   --> A              
     e( 76 - 76) =      2.37442  eV     1   --> A              
     e( 77 - 77) =      2.50268  eV     1   --> A              
     e( 78 - 78) =      3.03391  eV     1   --> A              
     e( 79 - 79) =      4.18223  eV     1   --> A              
     e( 80 - 80) =      4.21043  eV     1   --> A              
     e( 81 - 81) =      4.41198  eV     1   --> A              
     e( 82 - 82) =      4.41832  eV     1   --> A              
     e( 83 - 83) =      4.66633  eV     1   --> A              
     e( 84 - 84) =      4.74994  eV     1   --> A              
     e( 85 - 85) =      4.81798  eV     1   --> A              
     e( 86 - 86) =      4.85743  eV     1   --> A              
     e( 87 - 87) =      4.87334  eV     1   --> A              
     e( 88 - 88) =      5.04034  eV     1   --> A              
     e( 89 - 89) =      5.08452  eV     1   --> A              
     e( 90 - 90) =      5.17216  eV     1   --> A              
     e( 91 - 91) =      5.23084  eV     1   --> A              
     e( 92 - 92) =      5.48450  eV     1   --> A              
     e( 93 - 93) =      5.53355  eV     1   --> A              
     e( 94 - 94) =      5.67596  eV     1   --> A              
     e( 95 - 95) =      6.30476  eV     1   --> A              
     e( 96 - 96) =      6.48900  eV     1   --> A              
     e( 97 - 97) =      6.54805  eV     1   --> A              
     e( 98 - 98) =      6.65527  eV     1   --> A              
     e( 99 - 99) =      6.83201  eV     1   --> A              
     e(100 -100) =      7.00547  eV     1   --> A              
     e(101 -101) =      7.08687  eV     1   --> A              
     e(102 -102) =      7.20030  eV     1   --> A              
     e(103 -103) =      7.28030  eV     1   --> A              
     e(104 -104) =      7.29776  eV     1   --> A              
     e(105 -105) =      7.43514  eV     1   --> A              
     e(106 -106) =      7.51195  eV     1   --> A              
     e(107 -107) =      7.67120  eV     1   --> A              
     e(108 -108) =      7.77732  eV     1   --> A              
     e(109 -109) =      7.89495  eV     1   --> A              
     e(110 -110) =      8.02968  eV     1   --> A              
     e(111 -111) =      8.12985  eV     1   --> A              
     e(112 -112) =      8.31869  eV     1   --> A              
     e(113 -113) =      8.37283  eV     1   --> A              
     e(114 -114) =      8.48548  eV     1   --> A              
     e(115 -115) =      8.60551  eV     1   --> A              
     e(116 -116) =      8.65746  eV     1   --> A              
     e(117 -117) =      8.80449  eV     1   --> A              
     e(118 -118) =      8.90849  eV     1   --> A              
     e(119 -119) =      9.08528  eV     1   --> A              
     e(120 -120) =      9.20515  eV     1   --> A              
     e(121 -121) =      9.33336  eV     1   --> A              
     e(122 -122) =      9.39779  eV     1   --> A              
     e(123 -123) =      9.45498  eV     1   --> A              
     e(124 -124) =      9.52686  eV     1   --> A              
     e(125 -125) =      9.64799  eV     1   --> A              
     e(126 -126) =      9.68298  eV     1   --> A              
     e(127 -127) =      9.72560  eV     1   --> A              
     e(128 -128) =      9.89759  eV     1   --> A              
     e(129 -129) =      9.94706  eV     1   --> A              
     e(130 -130) =      9.96759  eV     1   --> A              
     e(131 -131) =     10.00700  eV     1   --> A              
     e(132 -132) =     10.10860  eV     1   --> A              
     e(133 -133) =     10.14352  eV     1   --> A              
     e(134 -134) =     10.17006  eV     1   --> A              
     e(135 -135) =     10.36934  eV     1   --> A              
     e(136 -136) =     10.47368  eV     1   --> A              
     e(137 -137) =     10.54394  eV     1   --> A              
     e(138 -138) =     10.71863  eV     1   --> A              
     e(139 -139) =     10.95554  eV     1   --> A              
     e(140 -140) =     11.10549  eV     1   --> A              
     e(141 -141) =     11.17206  eV     1   --> A              
     e(142 -142) =     11.21463  eV     1   --> A              
     e(143 -143) =     11.30542  eV     1   --> A              
     e(144 -144) =     11.44876  eV     1   --> A              
     e(145 -145) =     11.58198  eV     1   --> A              
     e(146 -146) =     11.85104  eV     1   --> A              
     e(147 -147) =     11.94277  eV     1   --> A              
     e(148 -148) =     13.69756  eV     1   --> A              
     e(149 -149) =     13.77433  eV     1   --> A              
     e(150 -150) =     13.83998  eV     1   --> A              
     e(151 -151) =     13.95616  eV     1   --> A              
     e(152 -152) =     14.03135  eV     1   --> A              
     e(153 -153) =     14.04398  eV     1   --> A              
     e(154 -154) =     14.12102  eV     1   --> A              
     e(155 -155) =     14.15315  eV     1   --> A              
     e(156 -156) =     14.17413  eV     1   --> A              
     e(157 -157) =     14.35207  eV     1   --> A              
     e(158 -158) =     14.40666  eV     1   --> A              
     e(159 -159) =     14.81064  eV     1   --> A              
     e(160 -160) =     14.96403  eV     1   --> A              
     e(161 -161) =     15.38227  eV     1   --> A              
     e(162 -162) =     15.50337  eV     1   --> A              
     e(163 -163) =     15.59609  eV     1   --> A              
     e(164 -164) =     15.75789  eV     1   --> A              
     e(165 -165) =     15.92915  eV     1   --> A              
     e(166 -166) =     16.08008  eV     1   --> A              
     e(167 -167) =     16.58048  eV     1   --> A              
     e(168 -168) =     16.84861  eV     1   --> A              
     e(169 -169) =     16.92271  eV     1   --> A              
     e(170 -170) =     16.97893  eV     1   --> A              
     e(171 -171) =     17.23175  eV     1   --> A              
     e(172 -172) =     17.33480  eV     1   --> A              
     e(173 -173) =     17.38584  eV     1   --> A              
     e(174 -174) =     17.46991  eV     1   --> A              
     e(175 -175) =     17.49760  eV     1   --> A              
     e(176 -176) =     17.80459  eV     1   --> A              

 **************************************************************************

 **************************************************************************

                    xk=(   0.25000,   0.14434,   0.00000  )

     Band symmetry, C_1 (1)     point group:

     e(  1 -  1) =    -79.47834  eV     1   --> A              
     e(  2 -  2) =    -79.28773  eV     1   --> A              
     e(  3 -  3) =    -79.23884  eV     1   --> A              
     e(  4 -  4) =    -74.19402  eV     1   --> A              
     e(  5 -  5) =    -74.07183  eV     1   --> A              
     e(  6 -  6) =    -74.05578  eV     1   --> A              
     e(  7 -  7) =    -45.47070  eV     1   --> A              
     e(  8 -  9) =    -45.41904  eV     2   -->   2 A              
     e( 10 - 10) =    -45.27715  eV     1   --> A              
     e( 11 - 11) =    -45.27672  eV     1   --> A              
     e( 12 - 13) =    -45.23628  eV     2   -->   2 A              
     e( 14 - 15) =    -45.16864  eV     2   -->   2 A              
     e( 16 - 16) =    -40.32957  eV     1   --> A              
     e( 17 - 18) =    -40.27987  eV     2   -->   2 A              
     e( 19 - 19) =    -40.20859  eV     1   --> A              
     e( 20 - 20) =    -40.20595  eV     1   --> A              
     e( 21 - 22) =    -40.16195  eV     2   -->   2 A              
     e( 23 - 24) =    -40.14470  eV     2   -->   2 A              
     e( 25 - 25) =    -10.57198  eV     1   --> A              
     e( 26 - 26) =    -10.56179  eV     1   --> A              
     e( 27 - 27) =    -10.55959  eV     1   --> A              
     e( 28 - 28) =    -10.54920  eV     1   --> A              
     e( 29 - 29) =    -10.53788  eV     1   --> A              
     e( 30 - 30) =    -10.52792  eV     1   --> A              
     e( 31 - 31) =    -10.50275  eV     1   --> A              
     e( 32 - 32) =    -10.50108  eV     1   --> A              
     e( 33 - 33) =    -10.49329  eV     1   --> A              
     e( 34 - 34) =    -10.49136  eV     1   --> A              
     e( 35 - 35) =    -10.48091  eV     1   --> A              
     e( 36 - 36) =    -10.47997  eV     1   --> A              
     e( 37 - 37) =    -10.47002  eV     1   --> A              
     e( 38 - 38) =    -10.46932  eV     1   --> A              
     e( 39 - 39) =    -10.43866  eV     1   --> A              
     e( 40 - 40) =    -10.43233  eV     1   --> A              
     e( 41 - 41) =    -10.41920  eV     1   --> A              
     e( 42 - 42) =    -10.41776  eV     1   --> A              
     e( 43 - 43) =    -10.41336  eV     1   --> A              
     e( 44 - 44) =    -10.41236  eV     1   --> A              
     e( 45 - 45) =    -10.40342  eV     1   --> A              
     e( 46 - 46) =    -10.39958  eV     1   --> A              
     e( 47 - 47) =    -10.39511  eV     1   --> A              
     e( 48 - 48) =    -10.39182  eV     1   --> A              
     e( 49 - 49) =    -10.38993  eV     1   --> A              
     e( 50 - 50) =    -10.38434  eV     1   --> A              
     e( 51 - 51) =    -10.36655  eV     1   --> A              
     e( 52 - 52) =    -10.36155  eV     1   --> A              
     e( 53 - 53) =    -10.35889  eV     1   --> A              
     e( 54 - 54) =    -10.35419  eV     1   --> A              
     e( 55 - 55) =     -7.06551  eV     1   --> A              
     e( 56 - 56) =     -6.71188  eV     1   --> A              
     e( 57 - 57) =     -6.59399  eV     1   --> A              
     e( 58 - 58) =     -5.97906  eV     1   --> A              
     e( 59 - 59) =     -5.85315  eV     1   --> A              
     e( 60 - 60) =     -5.66757  eV     1   --> A              
     e( 61 - 61) =     -5.61505  eV     1   --> A              
     e( 62 - 62) =     -5.56693  eV     1   --> A              
     e( 63 - 63) =     -5.49758  eV     1   --> A              
     e( 64 - 64) =     -5.43565  eV     1   --> A              
     e( 65 - 65) =     -5.40565  eV     1   --> A              
     e( 66 - 66) =     -5.37525  eV     1   --> A              
     e( 67 - 67) =     -5.28272  eV     1   --> A              
     e( 68 - 68) =     -5.23583  eV     1   --> A              
     e( 69 - 69) =     -5.07085  eV     1   --> A              
     e( 70 - 70) =     -5.04467  eV     1   --> A              
     e( 71 - 71) =     -4.87539  eV     1   --> A              
     e( 72 - 72) =     -4.83691  eV     1   --> A              
     e( 73 - 73) =      1.59833  eV     1   --> A              
     e( 74 - 74) =      1.71180  eV     1   --> A              
     e( 75 - 75) =      1.83335  eV     1   --> A              
     e( 76 - 76) =      2.29483  eV     1   --> A              
     e( 77 - 77) =      2.46043  eV     1   --> A              
     e( 78 - 78) =      2.87540  eV     1   --> A              
     e( 79 - 79) =      4.18401  eV     1   --> A              
     e( 80 - 80) =      4.21618  eV     1   --> A              
     e( 81 - 81) =      4.44942  eV     1   --> A              
     e( 82 - 82) =      4.47007  eV     1   --> A              
     e( 83 - 83) =      4.65702  eV     1   --> A              
     e( 84 - 84) =      4.77994  eV     1   --> A              
     e( 85 - 85) =      4.79037  eV     1   --> A              
     e( 86 - 86) =      4.87238  eV     1   --> A              
     e( 87 - 87) =      4.88718  eV     1   --> A              
     e( 88 - 88) =      5.05685  eV     1   --> A              
     e( 89 - 89) =      5.08803  eV     1   --> A              
     e( 90 - 90) =      5.19016  eV     1   --> A              
     e( 91 - 91) =      5.24813  eV     1   --> A              
     e( 92 - 92) =      5.44621  eV     1   --> A              
     e( 93 - 93) =      5.55546  eV     1   --> A              
     e( 94 - 94) =      5.77252  eV     1   --> A              
     e( 95 - 95) =      6.36779  eV     1   --> A              
     e( 96 - 96) =      6.52421  eV     1   --> A              
     e( 97 - 97) =      6.59891  eV     1   --> A              
     e( 98 - 98) =      6.76565  eV     1   --> A              
     e( 99 - 99) =      6.92595  eV     1   --> A              
     e(100 -100) =      7.05606  eV     1   --> A              
     e(101 -101) =      7.15549  eV     1   --> A              
     e(102 -102) =      7.28473  eV     1   --> A              
     e(103 -103) =      7.30688  eV     1   --> A              
     e(104 -104) =      7.34668  eV     1   --> A              
     e(105 -105) =      7.50880  eV     1   --> A              
     e(106 -106) =      7.56452  eV     1   --> A              
     e(107 -107) =      7.73648  eV     1   --> A              
     e(108 -108) =      7.82161  eV     1   --> A              
     e(109 -109) =      7.95686  eV     1   --> A              
     e(110 -110) =      8.08310  eV     1   --> A              
     e(111 -111) =      8.16797  eV     1   --> A              
     e(112 -112) =      8.27932  eV     1   --> A              
     e(113 -113) =      8.45914  eV     1   --> A              
     e(114 -114) =      8.48966  eV     1   --> A              
     e(115 -115) =      8.65016  eV     1   --> A              
     e(116 -116) =      8.70615  eV     1   --> A              
     e(117 -117) =      8.82630  eV     1   --> A              
     e(118 -118) =      8.93382  eV     1   --> A              
     e(119 -119) =      9.04352  eV     1   --> A              
     e(120 -120) =      9.16869  eV     1   --> A              
     e(121 -121) =      9.29108  eV     1   --> A              
     e(122 -122) =      9.37476  eV     1   --> A              
     e(123 -123) =      9.42476  eV     1   --> A              
     e(124 -124) =      9.52156  eV     1   --> A              
     e(125 -125) =      9.65562  eV     1   --> A              
     e(126 -126) =      9.67585  eV     1   --> A              
     e(127 -127) =      9.73680  eV     1   --> A              
     e(128 -128) =      9.81124  eV     1   --> A              
     e(129 -129) =      9.87790  eV     1   --> A              
     e(130 -130) =      9.93014  eV     1   --> A              
     e(131 -131) =      9.95140  eV     1   --> A              
     e(132 -132) =     10.05880  eV     1   --> A              
     e(133 -133) =     10.09491  eV     1   --> A              
     e(134 -134) =     10.14059  eV     1   --> A              
     e(135 -135) =     10.31980  eV     1   --> A              
     e(136 -136) =     10.40989  eV     1   --> A              
     e(137 -137) =     10.51354  eV     1   --> A              
     e(138 -138) =     10.69775  eV     1   --> A              
     e(139 -139) =     10.92680  eV     1   --> A              
     e(140 -140) =     11.06129  eV     1   --> A              
     e(141 -141) =     11.15272  eV     1   --> A              
     e(142 -142) =     11.21228  eV     1   --> A              
     e(143 -143) =     11.33927  eV     1   --> A              
     e(144 -144) =     11.49356  eV     1   --> A              
     e(145 -145) =     11.56169  eV     1   --> A              
     e(146 -146) =     11.81057  eV     1   --> A              
     e(147 -147) =     11.94148  eV     1   --> A              
     e(148 -148) =     13.69445  eV     1   --> A              
     e(149 -149) =     13.78786  eV     1   --> A              
     e(150 -150) =     13.82368  eV     1   --> A              
     e(151 -151) =     13.95772  eV     1   --> A              
     e(152 -152) =     14.03279  eV     1   --> A              
     e(153 -153) =     14.06015  eV     1   --> A              
     e(154 -154) =     14.12828  eV     1   --> A              
     e(155 -155) =     14.16360  eV     1   --> A              
     e(156 -156) =     14.18556  eV     1   --> A              
     e(157 -157) =     14.37558  eV     1   --> A              
     e(158 -158) =     14.45076  eV     1   --> A              
     e(159 -159) =     14.73024  eV     1   --> A              
     e(160 -160) =     14.95166  eV     1   --> A              
     e(161 -161) =     15.26993  eV     1   --> A              
     e(162 -162) =     15.42185  eV     1   --> A              
     e(163 -163) =     15.57875  eV     1   --> A              
     e(164 -164) =     15.74993  eV     1   --> A              
     e(165 -165) =     15.91962  eV     1   --> A              
     e(166 -166) =     16.10737  eV     1   --> A              
     e(167 -167) =     16.36214  eV     1   --> A              
     e(168 -168) =     16.65464  eV     1   --> A              
     e(169 -169) =     16.77724  eV     1   --> A              
     e(170 -170) =     16.80772  eV     1   --> A              
     e(171 -171) =     17.20537  eV     1   --> A              
     e(172 -172) =     17.26406  eV     1   --> A              
     e(173 -173) =     17.29030  eV     1   --> A              
     e(174 -174) =     17.36551  eV     1   --> A              
     e(175 -175) =     17.44818  eV     1   --> A              
     e(176 -176) =     17.73879  eV     1   --> A              

 **************************************************************************

 **************************************************************************

                    xk=(   0.30000,   0.17321,   0.00000  )

     Band symmetry, C_1 (1)     point group:

     e(  1 -  1) =    -79.47834  eV     1   --> A              
     e(  2 -  2) =    -79.28773  eV     1   --> A              
     e(  3 -  3) =    -79.23884  eV     1   --> A              
     e(  4 -  4) =    -74.19402  eV     1   --> A              
     e(  5 -  5) =    -74.07183  eV     1   --> A              
     e(  6 -  6) =    -74.05578  eV     1   --> A              
     e(  7 -  7) =    -45.47070  eV     1   --> A              
     e(  8 -  9) =    -45.41904  eV     2   -->   2 A              
     e( 10 - 10) =    -45.27715  eV     1   --> A              
     e( 11 - 11) =    -45.27672  eV     1   --> A              
     e( 12 - 13) =    -45.23628  eV     2   -->   2 A              
     e( 14 - 15) =    -45.16864  eV     2   -->   2 A              
     e( 16 - 16) =    -40.32957  eV     1   --> A              
     e( 17 - 18) =    -40.27987  eV     2   -->   2 A              
     e( 19 - 19) =    -40.20859  eV     1   --> A              
     e( 20 - 20) =    -40.20595  eV     1   --> A              
     e( 21 - 22) =    -40.16195  eV     2   -->   2 A              
     e( 23 - 24) =    -40.14470  eV     2   -->   2 A              
     e( 25 - 25) =    -10.57176  eV     1   --> A              
     e( 26 - 26) =    -10.56154  eV     1   --> A              
     e( 27 - 27) =    -10.55456  eV     1   --> A              
     e( 28 - 28) =    -10.54498  eV     1   --> A              
     e( 29 - 29) =    -10.53727  eV     1   --> A              
     e( 30 - 30) =    -10.52728  eV     1   --> A              
     e( 31 - 31) =    -10.50351  eV     1   --> A              
     e( 32 - 32) =    -10.49951  eV     1   --> A              
     e( 33 - 33) =    -10.49154  eV     1   --> A              
     e( 34 - 34) =    -10.48922  eV     1   --> A              
     e( 35 - 35) =    -10.47805  eV     1   --> A              
     e( 36 - 36) =    -10.47704  eV     1   --> A              
     e( 37 - 37) =    -10.47039  eV     1   --> A              
     e( 38 - 38) =    -10.46952  eV     1   --> A              
     e( 39 - 39) =    -10.43854  eV     1   --> A              
     e( 40 - 40) =    -10.43230  eV     1   --> A              
     e( 41 - 41) =    -10.42055  eV     1   --> A              
     e( 42 - 42) =    -10.41809  eV     1   --> A              
     e( 43 - 43) =    -10.41314  eV     1   --> A              
     e( 44 - 44) =    -10.41192  eV     1   --> A              
     e( 45 - 45) =    -10.40569  eV     1   --> A              
     e( 46 - 46) =    -10.40127  eV     1   --> A              
     e( 47 - 47) =    -10.39686  eV     1   --> A              
     e( 48 - 48) =    -10.39167  eV     1   --> A              
     e( 49 - 49) =    -10.39022  eV     1   --> A              
     e( 50 - 50) =    -10.38408  eV     1   --> A              
     e( 51 - 51) =    -10.36964  eV     1   --> A              
     e( 52 - 52) =    -10.36421  eV     1   --> A              
     e( 53 - 53) =    -10.35998  eV     1   --> A              
     e( 54 - 54) =    -10.35447  eV     1   --> A              
     e( 55 - 55) =     -6.97899  eV     1   --> A              
     e( 56 - 56) =     -6.64678  eV     1   --> A              
     e( 57 - 57) =     -6.52422  eV     1   --> A              
     e( 58 - 58) =     -6.05080  eV     1   --> A              
     e( 59 - 59) =     -5.85789  eV     1   --> A              
     e( 60 - 60) =     -5.71380  eV     1   --> A              
     e( 61 - 61) =     -5.63509  eV     1   --> A              
     e( 62 - 62) =     -5.58036  eV     1   --> A              
     e( 63 - 63) =     -5.51710  eV     1   --> A              
     e( 64 - 64) =     -5.46250  eV     1   --> A              
     e( 65 - 65) =     -5.42340  eV     1   --> A              
     e( 66 - 66) =     -5.39552  eV     1   --> A              
     e( 67 - 67) =     -5.29528  eV     1   --> A              
     e( 68 - 68) =     -5.25328  eV     1   --> A              
     e( 69 - 69) =     -5.08237  eV     1   --> A              
     e( 70 - 70) =     -5.05531  eV     1   --> A              
     e( 71 - 71) =     -4.89159  eV     1   --> A              
     e( 72 - 72) =     -4.84034  eV     1   --> A              
     e( 73 - 73) =      1.58223  eV     1   --> A              
     e( 74 - 74) =      1.70251  eV     1   --> A              
     e( 75 - 75) =      1.86554  eV     1   --> A              
     e( 76 - 76) =      2.20386  eV     1   --> A              
     e( 77 - 77) =      2.42625  eV     1   --> A              
     e( 78 - 78) =      2.71799  eV     1   --> A              
     e( 79 - 79) =      4.18542  eV     1   --> A              
     e( 80 - 80) =      4.22918  eV     1   --> A              
     e( 81 - 81) =      4.47202  eV     1   --> A              
     e( 82 - 82) =      4.49299  eV     1   --> A              
     e( 83 - 83) =      4.67271  eV     1   --> A              
     e( 84 - 84) =      4.74381  eV     1   --> A              
     e( 85 - 85) =      4.83116  eV     1   --> A              
     e( 86 - 86) =      4.88084  eV     1   --> A              
     e( 87 - 87) =      4.92212  eV     1   --> A              
     e( 88 - 88) =      5.05520  eV     1   --> A              
     e( 89 - 89) =      5.10064  eV     1   --> A              
     e( 90 - 90) =      5.20456  eV     1   --> A              
     e( 91 - 91) =      5.27477  eV     1   --> A              
     e( 92 - 92) =      5.40306  eV     1   --> A              
     e( 93 - 93) =      5.57846  eV     1   --> A              
     e( 94 - 94) =      5.88116  eV     1   --> A              
     e( 95 - 95) =      6.44183  eV     1   --> A              
     e( 96 - 96) =      6.55737  eV     1   --> A              
     e( 97 - 97) =      6.64345  eV     1   --> A              
     e( 98 - 98) =      6.86270  eV     1   --> A              
     e( 99 - 99) =      7.00904  eV     1   --> A              
     e(100 -100) =      7.09560  eV     1   --> A              
     e(101 -101) =      7.25540  eV     1   --> A              
     e(102 -102) =      7.29436  eV     1   --> A              
     e(103 -103) =      7.36447  eV     1   --> A              
     e(104 -104) =      7.39822  eV     1   --> A              
     e(105 -105) =      7.55318  eV     1   --> A              
     e(106 -106) =      7.66535  eV     1   --> A              
     e(107 -107) =      7.78725  eV     1   --> A              
     e(108 -108) =      7.89915  eV     1   --> A              
     e(109 -109) =      7.98582  eV     1   --> A              
     e(110 -110) =      8.12609  eV     1   --> A              
     e(111 -111) =      8.19399  eV     1   --> A              
     e(112 -112) =      8.30166  eV     1   --> A              
     e(113 -113) =      8.46122  eV     1   --> A              
     e(114 -114) =      8.56870  eV     1   --> A              
     e(115 -115) =      8.66267  eV     1   --> A              
     e(116 -116) =      8.72592  eV     1   --> A              
     e(117 -117) =      8.87830  eV     1   --> A              
     e(118 -118) =      8.90753  eV     1   --> A              
     e(119 -119) =      8.97959  eV     1   --> A              
     e(120 -120) =      9.16991  eV     1   --> A              
     e(121 -121) =      9.20596  eV     1   --> A              
     e(122 -122) =      9.29429  eV     1   --> A              
     e(123 -123) =      9.44733  eV     1   --> A              
     e(124 -124) =      9.55189  eV     1   --> A              
     e(125 -125) =      9.62893  eV     1   --> A              
     e(126 -126) =      9.69168  eV     1   --> A              
     e(127 -127) =      9.73613  eV     1   --> A              
     e(128 -128) =      9.78228  eV     1   --> A              
     e(129 -129) =      9.84185  eV     1   --> A              
     e(130 -130) =      9.89448  eV     1   --> A              
     e(131 -131) =      9.93492  eV     1   --> A              
     e(132 -132) =     10.01331  eV     1   --> A              
     e(133 -133) =     10.07277  eV     1   --> A              
     e(134 -134) =     10.13338  eV     1   --> A              
     e(135 -135) =     10.27329  eV     1   --> A              
     e(136 -136) =     10.35918  eV     1   --> A              
     e(137 -137) =     10.49770  eV     1   --> A              
     e(138 -138) =     10.68721  eV     1   --> A              
     e(139 -139) =     10.88932  eV     1   --> A              
     e(140 -140) =     10.99537  eV     1   --> A              
     e(141 -141) =     11.12697  eV     1   --> A              
     e(142 -142) =     11.19977  eV     1   --> A              
     e(143 -143) =     11.36902  eV     1   --> A              
     e(144 -144) =     11.48902  eV     1   --> A              
     e(145 -145) =     11.52614  eV     1   --> A              
     e(146 -146) =     11.76135  eV     1   --> A              
     e(147 -147) =     11.93696  eV     1   --> A              
     e(148 -148) =     13.69431  eV     1   --> A              
     e(149 -149) =     13.79229  eV     1   --> A              
     e(150 -150) =     13.82507  eV     1   --> A              
     e(151 -151) =     13.95010  eV     1   --> A              
     e(152 -152) =     14.02572  eV     1   --> A              
     e(153 -153) =     14.07844  eV     1   --> A              
     e(154 -154) =     14.12292  eV     1   --> A              
     e(155 -155) =     14.17827  eV     1   --> A              
     e(156 -156) =     14.20125  eV     1   --> A              
     e(157 -157) =     14.40505  eV     1   --> A              
     e(158 -158) =     14.49493  eV     1   --> A              
     e(159 -159) =     14.64239  eV     1   --> A              
     e(160 -160) =     14.93688  eV     1   --> A              
     e(161 -161) =     15.15203  eV     1   --> A              
     e(162 -162) =     15.34687  eV     1   --> A              
     e(163 -163) =     15.55559  eV     1   --> A              
     e(164 -164) =     15.75626  eV     1   --> A              
     e(165 -165) =     15.90680  eV     1   --> A              
     e(166 -166) =     16.13087  eV     1   --> A              
     e(167 -167) =     16.17991  eV     1   --> A              
     e(168 -168) =     16.44549  eV     1   --> A              
     e(169 -169) =     16.62987  eV     1   --> A              
     e(170 -170) =     16.63961  eV     1   --> A              
     e(171 -171) =     16.97921  eV     1   --> A              
     e(172 -172) =     17.23500  eV     1   --> A              
     e(173 -173) =     17.29470  eV     1   --> A              
     e(174 -174) =     17.35923  eV     1   --> A              
     e(175 -175) =     17.38363  eV     1   --> A              
     e(176 -176) =     17.65813  eV     1   --> A              

 **************************************************************************

 **************************************************************************

                    xk=(   0.35000,   0.20207,   0.00000  )

     Band symmetry, C_1 (1)     point group:

     e(  1 -  1) =    -79.47834  eV     1   --> A              
     e(  2 -  2) =    -79.28773  eV     1   --> A              
     e(  3 -  3) =    -79.23884  eV     1   --> A              
     e(  4 -  4) =    -74.19402  eV     1   --> A              
     e(  5 -  5) =    -74.07183  eV     1   --> A              
     e(  6 -  6) =    -74.05578  eV     1   --> A              
     e(  7 -  7) =    -45.47070  eV     1   --> A              
     e(  8 -  9) =    -45.41904  eV     2   -->   2 A              
     e( 10 - 10) =    -45.27715  eV     1   --> A              
     e( 11 - 11) =    -45.27672  eV     1   --> A              
     e( 12 - 13) =    -45.23628  eV     2   -->   2 A              
     e( 14 - 15) =    -45.16864  eV     2   -->   2 A              
     e( 16 - 16) =    -40.32957  eV     1   --> A              
     e( 17 - 18) =    -40.27988  eV     2   -->   2 A              
     e( 19 - 19) =    -40.20859  eV     1   --> A              
     e( 20 - 20) =    -40.20595  eV     1   --> A              
     e( 21 - 22) =    -40.16195  eV     2   -->   2 A              
     e( 23 - 24) =    -40.14470  eV     2   -->   2 A              
     e( 25 - 25) =    -10.57267  eV     1   --> A              
     e( 26 - 26) =    -10.55970  eV     1   --> A              
     e( 27 - 27) =    -10.55000  eV     1   --> A              
     e( 28 - 28) =    -10.54038  eV     1   --> A              
     e( 29 - 29) =    -10.53691  eV     1   --> A              
     e( 30 - 30) =    -10.52690  eV     1   --> A              
     e( 31 - 31) =    -10.50525  eV     1   --> A              
     e( 32 - 32) =    -10.49755  eV     1   --> A              
     e( 33 - 33) =    -10.49000  eV     1   --> A              
     e( 34 - 34) =    -10.48713  eV     1   --> A              
     e( 35 - 35) =    -10.47606  eV     1   --> A              
     e( 36 - 36) =    -10.47506  eV     1   --> A              
     e( 37 - 37) =    -10.46961  eV     1   --> A              
     e( 38 - 38) =    -10.46878  eV     1   --> A              
     e( 39 - 39) =    -10.43905  eV     1   --> A              
     e( 40 - 40) =    -10.43236  eV     1   --> A              
     e( 41 - 41) =    -10.42212  eV     1   --> A              
     e( 42 - 42) =    -10.41851  eV     1   --> A              
     e( 43 - 43) =    -10.41278  eV     1   --> A              
     e( 44 - 44) =    -10.41114  eV     1   --> A              
     e( 45 - 45) =    -10.40759  eV     1   --> A              
     e( 46 - 46) =    -10.40297  eV     1   --> A              
     e( 47 - 47) =    -10.39853  eV     1   --> A              
[...]
     e(169 -169) =     17.10488  eV     1   --> A              
     e(170 -170) =     17.19044  eV     1   --> A              
     e(171 -171) =     17.40748  eV     1   --> A              
     e(172 -172) =     17.41400  eV     1   --> A              
     e(173 -173) =     17.49013  eV     1   --> A              
     e(174 -174) =     17.50047  eV     1   --> A              
     e(175 -175) =     17.74081  eV     1   --> A              
     e(176 -176) =     17.79229  eV     1   --> A              

 **************************************************************************

 **************************************************************************

                    xk=(   0.06667,   0.00000,   0.00000  )

     Band symmetry, C_1 (1)     point group:

     e(  1 -  1) =    -79.47833  eV     1   --> A              
     e(  2 -  2) =    -79.28773  eV     1   --> A              
     e(  3 -  3) =    -79.23884  eV     1   --> A              
     e(  4 -  4) =    -74.19402  eV     1   --> A              
     e(  5 -  5) =    -74.07183  eV     1   --> A              
     e(  6 -  6) =    -74.05578  eV     1   --> A              
     e(  7 -  7) =    -45.47070  eV     1   --> A              
     e(  8 -  9) =    -45.41904  eV     2   -->   2 A              
     e( 10 - 10) =    -45.27715  eV     1   --> A              
     e( 11 - 11) =    -45.27672  eV     1   --> A              
     e( 12 - 13) =    -45.23628  eV     2   -->   2 A              
     e( 14 - 15) =    -45.16864  eV     2   -->   2 A              
     e( 16 - 16) =    -40.32957  eV     1   --> A              
     e( 17 - 18) =    -40.27987  eV     2   -->   2 A              
     e( 19 - 19) =    -40.20859  eV     1   --> A              
     e( 20 - 20) =    -40.20595  eV     1   --> A              
     e( 21 - 22) =    -40.16195  eV     2   -->   2 A              
     e( 23 - 24) =    -40.14470  eV     2   -->   2 A              
     e( 25 - 25) =    -10.57768  eV     1   --> A              
     e( 26 - 26) =    -10.57686  eV     1   --> A              
     e( 27 - 27) =    -10.55493  eV     1   --> A              
     e( 28 - 28) =    -10.55446  eV     1   --> A              
     e( 29 - 29) =    -10.53976  eV     1   --> A              
     e( 30 - 30) =    -10.52965  eV     1   --> A              
     e( 31 - 31) =    -10.51070  eV     1   --> A              
     e( 32 - 32) =    -10.51053  eV     1   --> A              
     e( 33 - 34) =    -10.49570  eV     2   -->   2 A              
     e( 35 - 35) =    -10.48828  eV     1   --> A              
     e( 36 - 36) =    -10.48811  eV     1   --> A              
     e( 37 - 38) =    -10.46655  eV     2   -->   2 A              
     e( 39 - 39) =    -10.44142  eV     1   --> A              
     e( 40 - 40) =    -10.43182  eV     1   --> A              
     e( 41 - 42) =    -10.41870  eV     2   -->   2 A              
     e( 43 - 43) =    -10.40910  eV     1   --> A              
     e( 44 - 44) =    -10.40899  eV     1   --> A              
     e( 45 - 45) =    -10.39887  eV     1   --> A              
     e( 46 - 46) =    -10.39859  eV     1   --> A              
     e( 47 - 47) =    -10.39335  eV     1   --> A              
     e( 48 - 48) =    -10.38849  eV     1   --> A              
     e( 49 - 49) =    -10.38816  eV     1   --> A              
     e( 50 - 50) =    -10.38540  eV     1   --> A              
     e( 51 - 51) =    -10.36029  eV     1   --> A              
     e( 52 - 52) =    -10.35998  eV     1   --> A              
     e( 53 - 53) =    -10.35101  eV     1   --> A              
     e( 54 - 54) =    -10.35048  eV     1   --> A              
     e( 55 - 55) =     -7.26184  eV     1   --> A              
     e( 56 - 56) =     -6.87006  eV     1   --> A              
     e( 57 - 57) =     -6.75730  eV     1   --> A              
     e( 58 - 58) =     -5.92609  eV     1   --> A              
     e( 59 - 59) =     -5.85566  eV     1   --> A              
     e( 60 - 60) =     -5.56775  eV     1   --> A              
     e( 61 - 61) =     -5.56282  eV     1   --> A              
     e( 62 - 62) =     -5.45523  eV     1   --> A              
     e( 63 - 63) =     -5.45333  eV     1   --> A              
     e( 64 - 64) =     -5.35716  eV     1   --> A              
     e( 65 - 65) =     -5.35332  eV     1   --> A              
     e( 66 - 66) =     -5.29419  eV     1   --> A              
     e( 67 - 67) =     -5.23002  eV     1   --> A              
     e( 68 - 68) =     -5.22589  eV     1   --> A              
     e( 69 - 69) =     -4.99866  eV     1   --> A              
     e( 70 - 70) =     -4.99593  eV     1   --> A              
     e( 71 - 71) =     -4.83800  eV     1   --> A              
     e( 72 - 72) =     -4.83557  eV     1   --> A              
     e( 73 - 73) =      1.64316  eV     1   --> A              
     e( 74 - 74) =      1.76892  eV     1   --> A              
     e( 75 - 75) =      1.82412  eV     1   --> A              
     e( 76 - 76) =      2.50720  eV     1   --> A              
     e( 77 - 77) =      2.62066  eV     1   --> A              
     e( 78 - 78) =      3.38395  eV     1   --> A              
     e( 79 - 79) =      4.17183  eV     1   --> A              
     e( 80 - 80) =      4.18231  eV     1   --> A              
     e( 81 - 81) =      4.30967  eV     1   --> A              
     e( 82 - 82) =      4.32215  eV     1   --> A              
     e( 83 - 83) =      4.66566  eV     1   --> A              
     e( 84 - 84) =      4.67044  eV     1   --> A              
     e( 85 - 85) =      4.85466  eV     1   --> A              
     e( 86 - 86) =      4.86891  eV     1   --> A              
     e( 87 - 87) =      4.90094  eV     1   --> A              
     e( 88 - 88) =      5.02917  eV     1   --> A              
     e( 89 - 89) =      5.06584  eV     1   --> A              
     e( 90 - 90) =      5.14213  eV     1   --> A              
     e( 91 - 91) =      5.16674  eV     1   --> A              
     e( 92 - 92) =      5.48775  eV     1   --> A              
     e( 93 - 93) =      5.52344  eV     1   --> A              
     e( 94 - 94) =      5.52818  eV     1   --> A              
     e( 95 - 95) =      6.20017  eV     1   --> A              
     e( 96 - 96) =      6.36635  eV     1   --> A              
     e( 97 - 97) =      6.36813  eV     1   --> A              
     e( 98 - 98) =      6.47235  eV     1   --> A              
     e( 99 - 99) =      6.74269  eV     1   --> A              
     e(100 -100) =      6.78888  eV     1   --> A              
     e(101 -101) =      6.93084  eV     1   --> A              
     e(102 -102) =      7.05480  eV     1   --> A              
     e(103 -103) =      7.09970  eV     1   --> A              
     e(104 -104) =      7.31260  eV     1   --> A              
     e(105 -105) =      7.36870  eV     1   --> A              
     e(106 -106) =      7.41581  eV     1   --> A              
     e(107 -107) =      7.56070  eV     1   --> A              
     e(108 -108) =      7.62085  eV     1   --> A              
     e(109 -109) =      7.81664  eV     1   --> A              
     e(110 -110) =      7.85651  eV     1   --> A              
     e(111 -111) =      8.11005  eV     1   --> A              
     e(112 -112) =      8.13938  eV     1   --> A              
     e(113 -113) =      8.36540  eV     1   --> A              
     e(114 -114) =      8.40483  eV     1   --> A              
     e(115 -115) =      8.44879  eV     1   --> A              
     e(116 -116) =      8.50744  eV     1   --> A              
     e(117 -117) =      8.91021  eV     1   --> A              
     e(118 -118) =      8.92974  eV     1   --> A              
     e(119 -119) =      9.15585  eV     1   --> A              
     e(120 -120) =      9.17493  eV     1   --> A              
     e(121 -121) =      9.34055  eV     1   --> A              
     e(122 -122) =      9.43229  eV     1   --> A              
     e(123 -123) =      9.46610  eV     1   --> A              
     e(124 -124) =      9.51853  eV     1   --> A              
     e(125 -125) =      9.66164  eV     1   --> A              
     e(126 -126) =      9.68160  eV     1   --> A              
     e(127 -127) =     10.00882  eV     1   --> A              
     e(128 -128) =     10.05544  eV     1   --> A              
     e(129 -129) =     10.11910  eV     1   --> A              
     e(130 -130) =     10.14274  eV     1   --> A              
     e(131 -131) =     10.15866  eV     1   --> A              
     e(132 -132) =     10.18977  eV     1   --> A              
     e(133 -133) =     10.22056  eV     1   --> A              
     e(134 -134) =     10.42400  eV     1   --> A              
     e(135 -135) =     10.43724  eV     1   --> A              
     e(136 -136) =     10.61296  eV     1   --> A              
     e(137 -137) =     10.67553  eV     1   --> A              
     e(138 -138) =     10.84377  eV     1   --> A              
     e(139 -139) =     10.99545  eV     1   --> A              
     e(140 -140) =     11.03107  eV     1   --> A              
     e(141 -141) =     11.17181  eV     1   --> A              
     e(142 -142) =     11.21019  eV     1   --> A              
     e(143 -143) =     11.28639  eV     1   --> A              
     e(144 -144) =     11.31755  eV     1   --> A              
     e(145 -145) =     11.39777  eV     1   --> A              
     e(146 -146) =     11.93465  eV     1   --> A              
     e(147 -147) =     11.94334  eV     1   --> A              
     e(148 -148) =     13.73294  eV     1   --> A              
     e(149 -149) =     13.74594  eV     1   --> A              
     e(150 -150) =     13.87477  eV     1   --> A              
     e(151 -151) =     13.92220  eV     1   --> A              
     e(152 -152) =     13.99846  eV     1   --> A              
     e(153 -153) =     14.01152  eV     1   --> A              
     e(154 -154) =     14.06213  eV     1   --> A              
     e(155 -155) =     14.17640  eV     1   --> A              
     e(156 -156) =     14.17725  eV     1   --> A              
     e(157 -157) =     14.31041  eV     1   --> A              
     e(158 -158) =     14.31412  eV     1   --> A              
     e(159 -159) =     14.96856  eV     1   --> A              
     e(160 -160) =     14.98381  eV     1   --> A              
     e(161 -161) =     15.59908  eV     1   --> A              
     e(162 -162) =     15.61543  eV     1   --> A              
     e(163 -163) =     15.63420  eV     1   --> A              
     e(164 -164) =     15.82834  eV     1   --> A              
     e(165 -165) =     15.91327  eV     1   --> A              
     e(166 -166) =     16.04680  eV     1   --> A              
     e(167 -167) =     17.17135  eV     1   --> A              
     e(168 -168) =     17.18546  eV     1   --> A              
     e(169 -169) =     17.23461  eV     1   --> A              
     e(170 -170) =     17.29883  eV     1   --> A              
     e(171 -171) =     17.37082  eV     1   --> A              
     e(172 -172) =     17.37843  eV     1   --> A              
     e(173 -173) =     17.66951  eV     1   --> A              
     e(174 -174) =     17.67615  eV     1   --> A              
     e(175 -175) =     17.71919  eV     1   --> A              
     e(176 -176) =     17.75525  eV     1   --> A              

 **************************************************************************

 **************************************************************************

                    xk=(   0.00000,   0.00000,   0.00000  )

     Band symmetry, C_1 (1)     point group:

     e(  1 -  1) =    -79.47833  eV     1   --> A              
     e(  2 -  2) =    -79.28773  eV     1   --> A              
     e(  3 -  3) =    -79.23884  eV     1   --> A              
     e(  4 -  4) =    -74.19402  eV     1   --> A              
     e(  5 -  5) =    -74.07183  eV     1   --> A              
     e(  6 -  6) =    -74.05578  eV     1   --> A              
     e(  7 -  7) =    -45.47070  eV     1   --> A              
     e(  8 -  9) =    -45.41904  eV     2   -->   2 A              
     e( 10 - 10) =    -45.27715  eV     1   --> A              
     e( 11 - 11) =    -45.27672  eV     1   --> A              
     e( 12 - 13) =    -45.23628  eV     2   -->   2 A              
     e( 14 - 15) =    -45.16864  eV     2   -->   2 A              
     e( 16 - 16) =    -40.32957  eV     1   --> A              
     e( 17 - 18) =    -40.27987  eV     2   -->   2 A              
     e( 19 - 19) =    -40.20859  eV     1   --> A              
     e( 20 - 20) =    -40.20595  eV     1   --> A              
     e( 21 - 22) =    -40.16195  eV     2   -->   2 A              
     e( 23 - 24) =    -40.14470  eV     2   -->   2 A              
     e( 25 - 26) =    -10.57813  eV     2   -->   2 A              
     e( 27 - 28) =    -10.55433  eV     2   -->   2 A              
     e( 29 - 29) =    -10.53985  eV     1   --> A              
     e( 30 - 30) =    -10.52967  eV     1   --> A              
     e( 31 - 32) =    -10.51182  eV     2   -->   2 A              
     e( 33 - 34) =    -10.49573  eV     2   -->   2 A              
     e( 35 - 36) =    -10.48858  eV     2   -->   2 A              
     e( 37 - 38) =    -10.46631  eV     2   -->   2 A              
     e( 39 - 39) =    -10.44170  eV     1   --> A              
     e( 40 - 40) =    -10.43175  eV     1   --> A              
     e( 41 - 42) =    -10.41877  eV     2   -->   2 A              
     e( 43 - 44) =    -10.40847  eV     2   -->   2 A              
     e( 45 - 46) =    -10.39880  eV     2   -->   2 A              
     e( 47 - 47) =    -10.39353  eV     1   --> A              
     e( 48 - 49) =    -10.38794  eV     2   -->   2 A              
     e( 50 - 50) =    -10.38567  eV     1   --> A              
     e( 51 - 52) =    -10.36008  eV     2   -->   2 A              
     e( 53 - 54) =    -10.35022  eV     2   -->   2 A              
     e( 55 - 55) =     -7.27329  eV     1   --> A              
     e( 56 - 56) =     -6.87955  eV     1   --> A              
     e( 57 - 57) =     -6.76703  eV     1   --> A              
     e( 58 - 58) =     -5.92791  eV     1   --> A              
     e( 59 - 59) =     -5.85656  eV     1   --> A              
     e( 60 - 61) =     -5.55952  eV     2   -->   2 A              
     e( 62 - 63) =     -5.44980  eV     2   -->   2 A              
     e( 64 - 65) =     -5.34962  eV     2   -->   2 A              
     e( 66 - 66) =     -5.29162  eV     1   --> A              
     e( 67 - 67) =     -5.22521  eV     1   --> A              
     e( 68 - 68) =     -5.22506  eV     1   --> A              
     e( 69 - 70) =     -4.99187  eV     2   -->   2 A              
     e( 71 - 72) =     -4.83610  eV     2   -->   2 A              
     e( 73 - 73) =      1.64705  eV     1   --> A              
     e( 74 - 74) =      1.77255  eV     1   --> A              
     e( 75 - 75) =      1.82760  eV     1   --> A              
     e( 76 - 76) =      2.52005  eV     1   --> A              
     e( 77 - 77) =      2.63466  eV     1   --> A              
     e( 78 - 78) =      3.42474  eV     1   --> A              
     e( 79 - 80) =      4.17066  eV     2   -->   2 A              
     e( 81 - 82) =      4.30964  eV     2   -->   2 A              
     e( 83 - 84) =      4.65858  eV     2   -->   2 A              
     e( 85 - 86) =      4.87316  eV     2   -->   2 A              
     e( 87 - 87) =      4.89532  eV     1   --> A              
     e( 88 - 88) =      5.02928  eV     1   --> A              
     e( 89 - 89) =      5.08318  eV     1   --> A              
     e( 90 - 91) =      5.13816  eV     2   -->   2 A              
     e( 92 - 92) =      5.47658  eV     1   --> A              
     e( 93 - 94) =      5.52395  eV     2   -->   2 A              
     e( 95 - 95) =      6.19400  eV     1   --> A              
     e( 96 - 97) =      6.33760  eV     2   -->   2 A              
     e( 98 - 98) =      6.46792  eV     1   --> A              
     e( 99 -100) =      6.76065  eV     2   -->   2 A              
     e(101 -101) =      6.90473  eV     1   --> A              
     e(102 -103) =      7.04456  eV     2   -->   2 A              
     e(104 -104) =      7.34411  eV     1   --> A              
     e(105 -106) =      7.40260  eV     2   -->   2 A              
     e(107 -107) =      7.51393  eV     1   --> A              
     e(108 -108) =      7.60153  eV     1   --> A              
     e(109 -110) =      7.82281  eV     2   -->   2 A              
     e(111 -112) =      8.11201  eV     2   -->   2 A              
     e(113 -113) =      8.34611  eV     1   --> A              
     e(114 -115) =      8.43867  eV     2   -->   2 A              
     e(116 -116) =      8.44390  eV     1   --> A              
     e(117 -118) =      8.93752  eV     2   -->   2 A              
     e(119 -120) =      9.17442  eV     2   -->   2 A              
     e(121 -121) =      9.38128  eV     1   --> A              
     e(122 -123) =      9.42893  eV     2   -->   2 A              
     e(124 -124) =      9.45982  eV     1   --> A              
     e(125 -126) =      9.68875  eV     2   -->   2 A              
     e(127 -128) =     10.06368  eV     2   -->   2 A              
     e(129 -130) =     10.16440  eV     2   -->   2 A              
     e(131 -131) =     10.16837  eV     1   --> A              
     e(132 -133) =     10.21538  eV     2   -->   2 A              
     e(134 -135) =     10.44948  eV     2   -->   2 A              
     e(136 -137) =     10.66551  eV     2   -->   2 A              
     e(138 -138) =     10.81403  eV     1   --> A              
     e(139 -139) =     10.95068  eV     1   --> A              
     e(140 -140) =     11.15941  eV     1   --> A              
     e(141 -142) =     11.18253  eV     2   -->   2 A              
     e(143 -143) =     11.25826  eV     1   --> A              
     e(144 -144) =     11.28633  eV     1   --> A              
     e(145 -145) =     11.34466  eV     1   --> A              
     e(146 -147) =     11.94351  eV     2   -->   2 A              
     e(148 -149) =     13.74334  eV     2   -->   2 A              
     e(150 -150) =     13.85979  eV     1   --> A              
     e(151 -151) =     13.93564  eV     1   --> A              
     e(152 -153) =     13.99773  eV     2   -->   2 A              
     e(154 -154) =     14.05332  eV     1   --> A              
     e(155 -156) =     14.18159  eV     2   -->   2 A              
     e(157 -158) =     14.30436  eV     2   -->   2 A              
     e(159 -160) =     14.98554  eV     2   -->   2 A              
     e(161 -161) =     15.60602  eV     1   --> A              
     e(162 -163) =     15.63917  eV     2   -->   2 A              
     e(164 -164) =     15.83503  eV     1   --> A              
     e(165 -165) =     15.90947  eV     1   --> A              
     e(166 -166) =     16.04260  eV     1   --> A              
     e(167 -168) =     17.26331  eV     2   -->   2 A              
     e(169 -170) =     17.29054  eV     2   -->   2 A              
     e(171 -172) =     17.37279  eV     2   -->   2 A              
     e(173 -173) =     17.65543  eV     1   --> A              
     e(174 -174) =     17.73097  eV     1   --> A              
     e(175 -176) =     17.80610  eV     2   -->   2 A              

 **************************************************************************

     BANDS        :   2m25.24s CPU   3m 9.83s WALL


   This run was terminated on:  23:34:14  15Dec2024            

=------------------------------------------------------------------------------=
   JOB DONE.
=------------------------------------------------------------------------------=
